                               Psi4 1.4rc3

  ==> Input File <==

--------------------------------------------------------------------------
# PSI4 file produced by CrystaLattE

# Generated from:               imidazole.xyz
# Psithon input for N-mer:      2mer-0+451
# Number of atoms per monomer:  [9, 9]
# Number of replicas:           2
# COM priority:                 1.513757253926e-05
# Minimum COM separations:      21.392
# Separation priority:          2.064657969853e-05
# Minimum monomer separations:  19.289
# Cutoff priority:              5.664098830994e-07
# Nuclear repulsion energy:     360.164964156634

memory 7 GB

molecule Dimer_0_451 {
  N           -4.29309621      -3.06837431       5.30516231
  N           -2.15847371      -2.92627296       1.72037448
  H           -0.02545587      -6.35903575       2.22046452
  H           -2.68566968      -6.53260241       6.61445954
  H           -4.74388423      -0.00609006       2.75615968
  H           -1.41045540      -2.24723147       0.00000000
  C           -1.43737991      -5.07504848       2.94065891
  C           -2.76900782      -5.14609916       5.13522880
  C           -3.85955036      -1.77728198       3.21093411
--
  N           25.24519024       9.04678142      29.58137789
  N           27.37981274       8.90468007      25.99659006
  H           29.51283059      12.33744286      26.49668010
  H           26.85261677      12.51100952      30.89067512
  H           24.79440223       5.98449717      27.03237526
  H           28.12783105       8.22563858      24.27621558
  C           28.10090654      11.05345559      27.21687450
  C           26.76927863      11.12450627      29.41144439
  C           25.67873609       7.75568909      27.48714970
units = au
no_com
no_reorient
}

set {
  e_convergence 10
  d_convergence 10
  scf_type df
  mp2_type df
  cc_type df
  freeze_core true
}

energy('sapt0/aug-cc-pvdz')

--------------------------------------------------------------------------

  //              Dimer HF             //
    Molecular point group: c1
  Charge       = 0
  Multiplicity = 1
  Basis Set: AUG-CC-PVDZ
    Blend: AUG-CC-PVDZ
  Basis Set: (AUG-CC-PVDZ AUX)
    Blend: AUG-CC-PVDZ-JKFIT
  @DF-RHF Final Energy:  -449.68735970976002
    Total Energy =                       -449.6873597097600168
  //            Monomer A HF           //
    Molecular point group: c1
  Multiplicity = 1
  Basis Set: AUG-CC-PVDZ
    Blend: AUG-CC-PVDZ
  Basis Set: (AUG-CC-PVDZ AUX)
    Blend: AUG-CC-PVDZ-JKFIT
  @DF-RHF Final Energy:  -224.84369627779088
    Total Energy =                       -224.8436962777908832
  //            Monomer B HF           //
    Molecular point group: c1

    Geometry (in Bohr), charge = 0, multiplicity = 1:

       Center              X                  Y                   Z               Mass
    ------------   -----------------  -----------------  -----------------  -----------------
      Gh(N)          -4.293096210000    -3.068374310000     5.305162310000    14.003074004430
      Gh(N)          -2.158473710000    -2.926272960000     1.720374480000    14.003074004430
      Gh(H)          -0.025455870000    -6.359035750000     2.220464520000     1.007825032230
      Gh(H)          -2.685669680000    -6.532602410000     6.614459540000     1.007825032230
      Gh(H)          -4.743884230000    -0.006090060000     2.756159680000     1.007825032230
      Gh(H)          -1.410455400000    -2.247231470000     0.000000000000     1.007825032230
      Gh(C)          -1.437379910000    -5.075048480000     2.940658910000    12.000000000000
      Gh(C)          -2.769007820000    -5.146099160000     5.135228800000    12.000000000000
      Gh(C)          -3.859550360000    -1.777281980000     3.210934110000    12.000000000000
         N           25.245190240000     9.046781420000    29.581377890000    14.003074004430
         N           27.379812740000     8.904680070000    25.996590060000    14.003074004430
         H           29.512830590000    12.337442860000    26.496680100000     1.007825032230
         H           26.852616770000    12.511009520000    30.890675120000     1.007825032230
         H           24.794402230000     5.984497170000    27.032375260000     1.007825032230
         H           28.127831050000     8.225638580000    24.276215580000     1.007825032230
         C           28.100906540000    11.053455590000    27.216874500000    12.000000000000
         C           26.769278630000    11.124506270000    29.411444390000    12.000000000000
         C           25.678736090000     7.755689090000    27.487149700000    12.000000000000

  Charge       = 0
  Multiplicity = 1
  Basis Set: AUG-CC-PVDZ
    Blend: AUG-CC-PVDZ
  Basis Set: (AUG-CC-PVDZ AUX)
    Blend: AUG-CC-PVDZ-JKFIT

    Orbital Energies [Eh]
    ---------------------

    Doubly Occupied:

       1A    -15.637071     2A    -15.551216     3A    -11.300916
       4A    -11.263160     5A    -11.245653     6A     -1.352867
       7A     -1.169098     8A     -1.012098     9A     -0.824390
      10A     -0.803731    11A     -0.760666    12A     -0.610096
      13A     -0.603958    14A     -0.601922    15A     -0.570942
      16A     -0.435483    17A     -0.400464    18A     -0.320685

  @DF-RHF Final Energy:  -224.84369627821988

   => Energetics <=

    Nuclear Repulsion Energy =            164.0866959694943716
    One-Electron Energy =                -628.9319562523043032
    Two-Electron Energy =                 240.0015640045900511
    Total Energy =                       -224.8436962782198805

  Dipole Moment: [D]
     X:     2.0431      Y:    -0.4150      Z:    -3.3867     Total:     3.9769

    SAPT Results
  --------------------------------------------------------------------------------------------------------
    Electrostatics                  0.03287689 [mEh]       0.02063056 [kcal/mol]       0.08631825 [kJ/mol]
      Elst10,r                      0.03287689 [mEh]       0.02063056 [kcal/mol]       0.08631825 [kJ/mol]

    Exchange                        0.00000000 [mEh]       0.00000000 [kcal/mol]       0.00000000 [kJ/mol]
      Exch10                        0.00000000 [mEh]       0.00000000 [kcal/mol]       0.00000000 [kJ/mol]
      Exch10(S^2)                   0.00000000 [mEh]       0.00000000 [kcal/mol]       0.00000000 [kJ/mol]

    Induction                      -0.00003064 [mEh]      -0.00001922 [kcal/mol]      -0.00008043 [kJ/mol]
      Ind20,r                      -0.00003339 [mEh]      -0.00002095 [kcal/mol]      -0.00008766 [kJ/mol]
      Exch-Ind20,r                  0.00000000 [mEh]       0.00000000 [kcal/mol]       0.00000000 [kJ/mol]
      delta HF,r (2)                0.00000275 [mEh]       0.00000173 [kcal/mol]       0.00000723 [kJ/mol]

    Dispersion                     -0.00025452 [mEh]      -0.00015971 [kcal/mol]      -0.00066823 [kJ/mol]
      Disp20                       -0.00025452 [mEh]      -0.00015971 [kcal/mol]      -0.00066823 [kJ/mol]
      Exch-Disp20                   0.00000000 [mEh]       0.00000000 [kcal/mol]       0.00000000 [kJ/mol]
      Disp20 (SS)                  -0.00012726 [mEh]      -0.00007986 [kcal/mol]      -0.00033412 [kJ/mol]
      Disp20 (OS)                  -0.00012726 [mEh]      -0.00007986 [kcal/mol]      -0.00033412 [kJ/mol]
      Exch-Disp20 (SS)              0.00000000 [mEh]       0.00000000 [kcal/mol]       0.00000000 [kJ/mol]
      Exch-Disp20 (OS)              0.00000000 [mEh]       0.00000000 [kcal/mol]       0.00000000 [kJ/mol]

  Total HF                          0.03284625 [mEh]       0.02061133 [kcal/mol]       0.08623782 [kJ/mol]
  Total SAPT0                       0.03259173 [mEh]       0.02045162 [kcal/mol]       0.08556959 [kJ/mol]

  Special recipe for scaled SAPT0 (see Manual):
    Electrostatics sSAPT0           0.03287689 [mEh]       0.02063056 [kcal/mol]       0.08631825 [kJ/mol]
    Exchange sSAPT0                 0.00000000 [mEh]       0.00000000 [kcal/mol]       0.00000000 [kJ/mol]
    Induction sSAPT0               -0.00003064 [mEh]      -0.00001922 [kcal/mol]      -0.00008043 [kJ/mol]
    Dispersion sSAPT0              -0.00025452 [mEh]      -0.00015971 [kcal/mol]      -0.00066823 [kJ/mol]
  Total sSAPT0                      0.03259173 [mEh]       0.02045162 [kcal/mol]       0.08556959 [kJ/mol]
  --------------------------------------------------------------------------------------------------------

*** Psi4 exiting successfully. Buy a developer a beer!
