                               Psi4 1.4rc3

  ==> Input File <==

--------------------------------------------------------------------------
# PSI4 file produced by CrystaLattE

# Generated from:               imidazole.xyz
# Psithon input for N-mer:      2mer-0+271
# Number of atoms per monomer:  [9, 9]
# Number of replicas:           2
# COM priority:                 2.352733807407e-05
# Minimum COM separations:      18.468
# Separation priority:          3.541874533663e-05
# Minimum monomer separations:  16.114
# Cutoff priority:              1.163172779784e-06
# Nuclear repulsion energy:     365.236455872256

memory 7 GB

molecule Dimer_0_271 {
  N           -4.29309621      -3.06837431       5.30516231
  N           -2.15847371      -2.92627296       1.72037448
  H           -0.02545587      -6.35903575       2.22046452
  H           -2.68566968      -6.53260241       6.61445954
  H           -4.74388423      -0.00609006       2.75615968
  H           -1.41045540      -2.24723147       0.00000000
  C           -1.43737991      -5.07504848       2.94065891
  C           -2.76900782      -5.14609916       5.13522880
  C           -3.85955036      -1.77728198       3.21093411
--
  N            1.07081333      27.38191658      21.48930603
  N            3.20543583      27.52401794      17.90451820
  H            5.33845367      24.09125515      18.40460824
  H            2.67823986      23.91768849      22.79860326
  H            0.62002531      30.44420084      18.94030340
  H            3.95345414      28.20305943      16.18414372
  C            3.92652963      25.37524241      19.12480264
  C            2.59490172      25.30419173      21.31937252
  C            1.50435918      28.67300892      19.39507784
units = au
no_com
no_reorient
}

set {
  e_convergence 10
  d_convergence 10
  scf_type df
  mp2_type df
  cc_type df
  freeze_core true
}

energy('sapt0/aug-cc-pvdz')

--------------------------------------------------------------------------

  //              Dimer HF             //
    Molecular point group: c1
  Charge       = 0
  Multiplicity = 1
  Basis Set: AUG-CC-PVDZ
    Blend: AUG-CC-PVDZ
  Basis Set: (AUG-CC-PVDZ AUX)
    Blend: AUG-CC-PVDZ-JKFIT
  @DF-RHF Final Energy:  -449.68734383694022
    Total Energy =                       -449.6873438369402720
  //            Monomer A HF           //
    Molecular point group: c1
  Multiplicity = 1
  Basis Set: AUG-CC-PVDZ
    Blend: AUG-CC-PVDZ
  Basis Set: (AUG-CC-PVDZ AUX)
    Blend: AUG-CC-PVDZ-JKFIT
  @DF-RHF Final Energy:  -224.84369627828855
    Total Energy =                       -224.8436962782885473
  //            Monomer B HF           //
    Molecular point group: c1

    Geometry (in Bohr), charge = 0, multiplicity = 1:

       Center              X                  Y                   Z               Mass
    ------------   -----------------  -----------------  -----------------  -----------------
      Gh(N)          -4.293096210000    -3.068374310000     5.305162310000    14.003074004430
      Gh(N)          -2.158473710000    -2.926272960000     1.720374480000    14.003074004430
      Gh(H)          -0.025455870000    -6.359035750000     2.220464520000     1.007825032230
      Gh(H)          -2.685669680000    -6.532602410000     6.614459540000     1.007825032230
      Gh(H)          -4.743884230000    -0.006090060000     2.756159680000     1.007825032230
      Gh(H)          -1.410455400000    -2.247231470000     0.000000000000     1.007825032230
      Gh(C)          -1.437379910000    -5.075048480000     2.940658910000    12.000000000000
      Gh(C)          -2.769007820000    -5.146099160000     5.135228800000    12.000000000000
      Gh(C)          -3.859550360000    -1.777281980000     3.210934110000    12.000000000000
         N            1.070813330000    27.381916580000    21.489306030000    14.003074004430
         N            3.205435830000    27.524017940000    17.904518200000    14.003074004430
         H            5.338453670000    24.091255150000    18.404608240000     1.007825032230
         H            2.678239860000    23.917688490000    22.798603260000     1.007825032230
         H            0.620025310000    30.444200840000    18.940303400000     1.007825032230
         H            3.953454140000    28.203059430000    16.184143720000     1.007825032230
         C            3.926529630000    25.375242410000    19.124802640000    12.000000000000
         C            2.594901720000    25.304191730000    21.319372520000    12.000000000000
         C            1.504359180000    28.673008920000    19.395077840000    12.000000000000

  Charge       = 0
  Multiplicity = 1
  Basis Set: AUG-CC-PVDZ
    Blend: AUG-CC-PVDZ
  Basis Set: (AUG-CC-PVDZ AUX)
    Blend: AUG-CC-PVDZ-JKFIT

    Orbital Energies [Eh]
    ---------------------

    Doubly Occupied:

       1A    -15.637071     2A    -15.551216     3A    -11.300916
       4A    -11.263160     5A    -11.245653     6A     -1.352867
       7A     -1.169098     8A     -1.012098     9A     -0.824390
      10A     -0.803731    11A     -0.760666    12A     -0.610096
      13A     -0.603958    14A     -0.601922    15A     -0.570942
      16A     -0.435483    17A     -0.400464    18A     -0.320685

  @DF-RHF Final Energy:  -224.84369627823924

   => Energetics <=

    Nuclear Repulsion Energy =            164.0866959211319056
    One-Electron Energy =                -628.9319561670893108
    Two-Electron Energy =                 240.0015639677181980
    Total Energy =                       -224.8436962782392357

  Dipole Moment: [D]
     X:     2.0431      Y:     0.4150      Z:    -3.3867     Total:     3.9769

    SAPT Results
  --------------------------------------------------------------------------------------------------------
    Electrostatics                  0.04878312 [mEh]       0.03061187 [kcal/mol]       0.12808007 [kJ/mol]
      Elst10,r                      0.04878312 [mEh]       0.03061187 [kcal/mol]       0.12808007 [kJ/mol]

    Exchange                        0.00000000 [mEh]       0.00000000 [kcal/mol]       0.00000000 [kJ/mol]
      Exch10                        0.00000000 [mEh]       0.00000000 [kcal/mol]       0.00000000 [kJ/mol]
      Exch10(S^2)                   0.00000000 [mEh]       0.00000000 [kcal/mol]       0.00000000 [kJ/mol]

    Induction                      -0.00006353 [mEh]      -0.00003987 [kcal/mol]      -0.00016681 [kJ/mol]
      Ind20,r                      -0.00007791 [mEh]      -0.00004889 [kcal/mol]      -0.00020455 [kJ/mol]
      Exch-Ind20,r                  0.00000000 [mEh]       0.00000000 [kcal/mol]       0.00000000 [kJ/mol]
      delta HF,r (2)                0.00001437 [mEh]       0.00000902 [kcal/mol]       0.00003774 [kJ/mol]

    Dispersion                     -0.00063549 [mEh]      -0.00039878 [kcal/mol]      -0.00166849 [kJ/mol]
      Disp20                       -0.00063549 [mEh]      -0.00039878 [kcal/mol]      -0.00166849 [kJ/mol]
      Exch-Disp20                   0.00000000 [mEh]       0.00000000 [kcal/mol]       0.00000000 [kJ/mol]
      Disp20 (SS)                  -0.00031775 [mEh]      -0.00019939 [kcal/mol]      -0.00083425 [kJ/mol]
      Disp20 (OS)                  -0.00031775 [mEh]      -0.00019939 [kcal/mol]      -0.00083425 [kJ/mol]
      Exch-Disp20 (SS)              0.00000000 [mEh]       0.00000000 [kcal/mol]       0.00000000 [kJ/mol]
      Exch-Disp20 (OS)              0.00000000 [mEh]       0.00000000 [kcal/mol]       0.00000000 [kJ/mol]

  Total HF                          0.04871959 [mEh]       0.03057200 [kcal/mol]       0.12791326 [kJ/mol]
  Total SAPT0                       0.04808409 [mEh]       0.03017322 [kcal/mol]       0.12624477 [kJ/mol]

  Special recipe for scaled SAPT0 (see Manual):
    Electrostatics sSAPT0           0.04878312 [mEh]       0.03061187 [kcal/mol]       0.12808007 [kJ/mol]
    Exchange sSAPT0                 0.00000000 [mEh]       0.00000000 [kcal/mol]       0.00000000 [kJ/mol]
    Induction sSAPT0               -0.00006353 [mEh]      -0.00003987 [kcal/mol]      -0.00016681 [kJ/mol]
    Dispersion sSAPT0              -0.00063549 [mEh]      -0.00039878 [kcal/mol]      -0.00166849 [kJ/mol]
  Total sSAPT0                      0.04808409 [mEh]       0.03017322 [kcal/mol]       0.12624477 [kJ/mol]
  --------------------------------------------------------------------------------------------------------

*** Psi4 exiting successfully. Buy a developer a beer!
