                               Psi4 1.4rc3

  ==> Input File <==

--------------------------------------------------------------------------
# PSI4 file produced by CrystaLattE

# Generated from:               imidazole.xyz
# Psithon input for N-mer:      2mer-0+330
# Number of atoms per monomer:  [9, 9]
# Number of replicas:           1
# COM priority:                 1.493955115661e-05
# Minimum COM separations:      21.486
# Separation priority:          2.327605534390e-05
# Minimum monomer separations:  18.534
# Cutoff priority:              6.645778180785e-07
# Nuclear repulsion energy:     360.09829678506304

memory 7 GB

molecule Dimer_0_330 {
  N           -4.29309621      -3.06837431       5.30516231
  N           -2.15847371      -2.92627296       1.72037448
  H           -0.02545587      -6.35903575       2.22046452
  H           -2.68566968      -6.53260241       6.61445954
  H           -4.74388423      -0.00609006       2.75615968
  H           -1.41045540      -2.24723147       0.00000000
  C           -1.43737991      -5.07504848       2.94065891
  C           -2.76900782      -5.14609916       5.13522880
  C           -3.85955036      -1.77728198       3.21093411
--
  N            9.59848081      34.42202384      -4.69340168
  N            7.46385831      34.27992248      -1.10861384
  H            5.33084047      37.71268527      -1.60870389
  H            7.99105428      37.88625193      -6.00269891
  H           10.04926883      31.35973958      -2.14439904
  H            6.71584001      33.60088099       0.61176063
  C            6.74276451      36.42869801      -2.32889828
  C            8.07439242      36.49974869      -4.52346817
  C            9.16493496      33.13093150      -2.59917348
units = au
no_com
no_reorient
}

set {
  e_convergence 10
  d_convergence 10
  scf_type df
  mp2_type df
  cc_type df
  freeze_core true
}

energy('sapt0/aug-cc-pvdz')

--------------------------------------------------------------------------

  //              Dimer HF             //
    Molecular point group: c1
  Charge       = 0
  Multiplicity = 1
  Basis Set: AUG-CC-PVDZ
    Blend: AUG-CC-PVDZ
  Basis Set: (AUG-CC-PVDZ AUX)
    Blend: AUG-CC-PVDZ-JKFIT
  @DF-RHF Final Energy:  -449.68741628366899
    Total Energy =                       -449.6874162836689948
  //            Monomer A HF           //
    Molecular point group: c1
  Multiplicity = 1
  Basis Set: AUG-CC-PVDZ
    Blend: AUG-CC-PVDZ
  Basis Set: (AUG-CC-PVDZ AUX)
    Blend: AUG-CC-PVDZ-JKFIT
  @DF-RHF Final Energy:  -224.84369627858570
    Total Energy =                       -224.8436962785856963
  //            Monomer B HF           //
    Molecular point group: c1

    Geometry (in Bohr), charge = 0, multiplicity = 1:

       Center              X                  Y                   Z               Mass
    ------------   -----------------  -----------------  -----------------  -----------------
      Gh(N)          -4.293096210000    -3.068374310000     5.305162310000    14.003074004430
      Gh(N)          -2.158473710000    -2.926272960000     1.720374480000    14.003074004430
      Gh(H)          -0.025455870000    -6.359035750000     2.220464520000     1.007825032230
      Gh(H)          -2.685669680000    -6.532602410000     6.614459540000     1.007825032230
      Gh(H)          -4.743884230000    -0.006090060000     2.756159680000     1.007825032230
      Gh(H)          -1.410455400000    -2.247231470000     0.000000000000     1.007825032230
      Gh(C)          -1.437379910000    -5.075048480000     2.940658910000    12.000000000000
      Gh(C)          -2.769007820000    -5.146099160000     5.135228800000    12.000000000000
      Gh(C)          -3.859550360000    -1.777281980000     3.210934110000    12.000000000000
         N            9.598480810000    34.422023840000    -4.693401680000    14.003074004430
         N            7.463858310000    34.279922480000    -1.108613840000    14.003074004430
         H            5.330840470000    37.712685270000    -1.608703890000     1.007825032230
         H            7.991054280000    37.886251930000    -6.002698910000     1.007825032230
         H           10.049268830000    31.359739580000    -2.144399040000     1.007825032230
         H            6.715840010000    33.600880990000     0.611760630000     1.007825032230
         C            6.742764510000    36.428698010000    -2.328898280000    12.000000000000
         C            8.074392420000    36.499748690000    -4.523468170000    12.000000000000
         C            9.164934960000    33.130931500000    -2.599173480000    12.000000000000

  Charge       = 0
  Multiplicity = 1
  Basis Set: AUG-CC-PVDZ
    Blend: AUG-CC-PVDZ
  Basis Set: (AUG-CC-PVDZ AUX)
    Blend: AUG-CC-PVDZ-JKFIT

    Orbital Energies [Eh]
    ---------------------

    Doubly Occupied:

       1A    -15.637071     2A    -15.551216     3A    -11.300916
       4A    -11.263160     5A    -11.245653     6A     -1.352867
       7A     -1.169098     8A     -1.012098     9A     -0.824390
      10A     -0.803731    11A     -0.760666    12A     -0.610096
      13A     -0.603958    14A     -0.601922    15A     -0.570942
      16A     -0.435483    17A     -0.400464    18A     -0.320685

  @DF-RHF Final Energy:  -224.84369627892698

   => Energetics <=

    Nuclear Repulsion Energy =            164.0866957764486926
    One-Electron Energy =                -628.9319558655449782
    Two-Electron Energy =                 240.0015638101693298
    Total Energy =                       -224.8436962789269842

  Dipole Moment: [D]
     X:    -2.0431      Y:    -0.4150      Z:     3.3867     Total:     3.9769

    SAPT Results
  --------------------------------------------------------------------------------------------------------
    Electrostatics                 -0.02367865 [mEh]      -0.01485858 [kcal/mol]      -0.06216829 [kJ/mol]
      Elst10,r                     -0.02367865 [mEh]      -0.01485858 [kcal/mol]      -0.06216829 [kJ/mol]

    Exchange                       -0.00000000 [mEh]      -0.00000000 [kcal/mol]      -0.00000000 [kJ/mol]
      Exch10                       -0.00000000 [mEh]      -0.00000000 [kcal/mol]      -0.00000000 [kJ/mol]
      Exch10(S^2)                  -0.00000000 [mEh]      -0.00000000 [kcal/mol]      -0.00000000 [kJ/mol]

    Induction                      -0.00004750 [mEh]      -0.00002981 [kcal/mol]      -0.00012472 [kJ/mol]
      Ind20,r                      -0.00004352 [mEh]      -0.00002731 [kcal/mol]      -0.00011427 [kJ/mol]
      Exch-Ind20,r                  0.00000000 [mEh]       0.00000000 [kcal/mol]       0.00000000 [kJ/mol]
      delta HF,r (2)               -0.00000398 [mEh]      -0.00000250 [kcal/mol]      -0.00001045 [kJ/mol]

    Dispersion                     -0.00027111 [mEh]      -0.00017012 [kcal/mol]      -0.00071180 [kJ/mol]
      Disp20                       -0.00027111 [mEh]      -0.00017012 [kcal/mol]      -0.00071180 [kJ/mol]
      Exch-Disp20                   0.00000000 [mEh]       0.00000000 [kcal/mol]       0.00000000 [kJ/mol]
      Disp20 (SS)                  -0.00013555 [mEh]      -0.00008506 [kcal/mol]      -0.00035590 [kJ/mol]
      Disp20 (OS)                  -0.00013555 [mEh]      -0.00008506 [kcal/mol]      -0.00035590 [kJ/mol]
      Exch-Disp20 (SS)              0.00000000 [mEh]       0.00000000 [kcal/mol]       0.00000000 [kJ/mol]
      Exch-Disp20 (OS)              0.00000000 [mEh]       0.00000000 [kcal/mol]       0.00000000 [kJ/mol]

  Total HF                         -0.02372616 [mEh]      -0.01488839 [kcal/mol]      -0.06229301 [kJ/mol]
  Total SAPT0                      -0.02399726 [mEh]      -0.01505851 [kcal/mol]      -0.06300481 [kJ/mol]

  Special recipe for scaled SAPT0 (see Manual):
    Electrostatics sSAPT0          -0.02367865 [mEh]      -0.01485858 [kcal/mol]      -0.06216829 [kJ/mol]
    Exchange sSAPT0                -0.00000000 [mEh]      -0.00000000 [kcal/mol]      -0.00000000 [kJ/mol]
    Induction sSAPT0               -0.00004750 [mEh]      -0.00002981 [kcal/mol]      -0.00012472 [kJ/mol]
    Dispersion sSAPT0              -0.00027111 [mEh]      -0.00017012 [kcal/mol]      -0.00071180 [kJ/mol]
  Total sSAPT0                     -0.02399726 [mEh]      -0.01505851 [kcal/mol]      -0.06300481 [kJ/mol]
  --------------------------------------------------------------------------------------------------------

*** Psi4 exiting successfully. Buy a developer a beer!
