                               Psi4 1.4rc3

  ==> Input File <==

--------------------------------------------------------------------------
# PSI4 file produced by CrystaLattE

# Generated from:               imidazole.xyz
# Psithon input for N-mer:      2mer-0+414
# Number of atoms per monomer:  [9, 9]
# Number of replicas:           1
# COM priority:                 2.474838228350e-05
# Minimum COM separations:      18.159
# Separation priority:          3.783777673480e-05
# Minimum monomer separations:  15.763
# Cutoff priority:              1.270283958440e-06
# Nuclear repulsion energy:     365.9091506909955

memory 7 GB

molecule Dimer_0_414 {
  N           -4.29309621      -3.06837431       5.30516231
  N           -2.15847371      -2.92627296       1.72037448
  H           -0.02545587      -6.35903575       2.22046452
  H           -2.68566968      -6.53260241       6.61445954
  H           -4.74388423      -0.00609006       2.75615968
  H           -1.41045540      -2.24723147       0.00000000
  C           -1.43737991      -5.07504848       2.94065891
  C           -2.76900782      -5.14609916       5.13522880
  C           -3.85955036      -1.77728198       3.21093411
--
  N          -22.65854439       3.97173294      27.67488576
  N          -24.79316689       3.82963158      31.25967360
  H          -26.92618474       7.26239438      30.75958356
  H          -24.26597092       7.43596104      26.36558854
  H          -22.20775638       0.90944869      30.22388840
  H          -25.54118520       3.15059010      32.98004808
  C          -25.51426069       5.97840711      30.03938916
  C          -24.18263278       6.04945779      27.84481927
  C          -23.09209025       2.68064061      29.76911396
units = au
no_com
no_reorient
}

set {
  e_convergence 10
  d_convergence 10
  scf_type df
  mp2_type df
  cc_type df
  freeze_core true
}

energy('sapt0/aug-cc-pvdz')

--------------------------------------------------------------------------

  //              Dimer HF             //
    Molecular point group: c1
  Charge       = 0
  Multiplicity = 1
  Basis Set: AUG-CC-PVDZ
    Blend: AUG-CC-PVDZ
  Basis Set: (AUG-CC-PVDZ AUX)
    Blend: AUG-CC-PVDZ-JKFIT
  @DF-RHF Final Energy:  -449.68727642400381
    Total Energy =                       -449.6872764240038123
  //            Monomer A HF           //
    Molecular point group: c1
  Multiplicity = 1
  Basis Set: AUG-CC-PVDZ
    Blend: AUG-CC-PVDZ
  Basis Set: (AUG-CC-PVDZ AUX)
    Blend: AUG-CC-PVDZ-JKFIT
  @DF-RHF Final Energy:  -224.84369627826388
    Total Energy =                       -224.8436962782638773
  //            Monomer B HF           //
    Molecular point group: c1

    Geometry (in Bohr), charge = 0, multiplicity = 1:

       Center              X                  Y                   Z               Mass
    ------------   -----------------  -----------------  -----------------  -----------------
      Gh(N)          -4.293096210000    -3.068374310000     5.305162310000    14.003074004430
      Gh(N)          -2.158473710000    -2.926272960000     1.720374480000    14.003074004430
      Gh(H)          -0.025455870000    -6.359035750000     2.220464520000     1.007825032230
      Gh(H)          -2.685669680000    -6.532602410000     6.614459540000     1.007825032230
      Gh(H)          -4.743884230000    -0.006090060000     2.756159680000     1.007825032230
      Gh(H)          -1.410455400000    -2.247231470000     0.000000000000     1.007825032230
      Gh(C)          -1.437379910000    -5.075048480000     2.940658910000    12.000000000000
      Gh(C)          -2.769007820000    -5.146099160000     5.135228800000    12.000000000000
      Gh(C)          -3.859550360000    -1.777281980000     3.210934110000    12.000000000000
         N          -22.658544390000     3.971732940000    27.674885760000    14.003074004430
         N          -24.793166890000     3.829631580000    31.259673600000    14.003074004430
         H          -26.926184740000     7.262394380000    30.759583560000     1.007825032230
         H          -24.265970920000     7.435961040000    26.365588540000     1.007825032230
         H          -22.207756380000     0.909448690000    30.223888400000     1.007825032230
         H          -25.541185200000     3.150590100000    32.980048080000     1.007825032230
         C          -25.514260690000     5.978407110000    30.039389160000    12.000000000000
         C          -24.182632780000     6.049457790000    27.844819270000    12.000000000000
         C          -23.092090250000     2.680640610000    29.769113960000    12.000000000000

  Charge       = 0
  Multiplicity = 1
  Basis Set: AUG-CC-PVDZ
    Blend: AUG-CC-PVDZ
  Basis Set: (AUG-CC-PVDZ AUX)
    Blend: AUG-CC-PVDZ-JKFIT

    Orbital Energies [Eh]
    ---------------------

    Doubly Occupied:

       1A    -15.637071     2A    -15.551216     3A    -11.300916
       4A    -11.263160     5A    -11.245653     6A     -1.352867
       7A     -1.169098     8A     -1.012098     9A     -0.824390
      10A     -0.803731    11A     -0.760666    12A     -0.610096
      13A     -0.603958    14A     -0.601922    15A     -0.570942
      16A     -0.435483    17A     -0.400464    18A     -0.320685

  @DF-RHF Final Energy:  -224.84369627799865

   => Energetics <=

    Nuclear Repulsion Energy =            164.0866958823358743
    One-Electron Energy =                -628.9319560743801958
    Two-Electron Energy =                 240.0015639140456472
    Total Energy =                       -224.8436962779986459

  Dipole Moment: [D]
     X:    -2.0431      Y:    -0.4150      Z:     3.3867     Total:     3.9769

    SAPT Results
  --------------------------------------------------------------------------------------------------------
    Electrostatics                  0.11642163 [mEh]       0.07305567 [kcal/mol]       0.30566494 [kJ/mol]
      Elst10,r                      0.11642163 [mEh]       0.07305567 [kcal/mol]       0.30566494 [kJ/mol]

    Exchange                        0.00000000 [mEh]       0.00000000 [kcal/mol]       0.00000000 [kJ/mol]
      Exch10                        0.00000000 [mEh]       0.00000000 [kcal/mol]       0.00000000 [kJ/mol]
      Exch10(S^2)                   0.00000000 [mEh]       0.00000000 [kcal/mol]       0.00000000 [kJ/mol]

    Induction                      -0.00028937 [mEh]      -0.00018158 [kcal/mol]      -0.00075973 [kJ/mol]
      Ind20,r                      -0.00032210 [mEh]      -0.00020212 [kcal/mol]      -0.00084567 [kJ/mol]
      Exch-Ind20,r                  0.00000000 [mEh]       0.00000000 [kcal/mol]       0.00000000 [kJ/mol]
      delta HF,r (2)                0.00003273 [mEh]       0.00002054 [kcal/mol]       0.00008593 [kJ/mol]

    Dispersion                     -0.00086919 [mEh]      -0.00054543 [kcal/mol]      -0.00228206 [kJ/mol]
      Disp20                       -0.00086919 [mEh]      -0.00054543 [kcal/mol]      -0.00228206 [kJ/mol]
      Exch-Disp20                   0.00000000 [mEh]       0.00000000 [kcal/mol]       0.00000000 [kJ/mol]
      Disp20 (SS)                  -0.00043460 [mEh]      -0.00027271 [kcal/mol]      -0.00114103 [kJ/mol]
      Disp20 (OS)                  -0.00043460 [mEh]      -0.00027271 [kcal/mol]      -0.00114103 [kJ/mol]
      Exch-Disp20 (SS)              0.00000000 [mEh]       0.00000000 [kcal/mol]       0.00000000 [kJ/mol]
      Exch-Disp20 (OS)              0.00000000 [mEh]       0.00000000 [kcal/mol]       0.00000000 [kJ/mol]

  Total HF                          0.11613226 [mEh]       0.07287409 [kcal/mol]       0.30490520 [kJ/mol]
  Total SAPT0                       0.11526307 [mEh]       0.07232867 [kcal/mol]       0.30262314 [kJ/mol]

  Special recipe for scaled SAPT0 (see Manual):
    Electrostatics sSAPT0           0.11642163 [mEh]       0.07305567 [kcal/mol]       0.30566494 [kJ/mol]
    Exchange sSAPT0                 0.00000000 [mEh]       0.00000000 [kcal/mol]       0.00000000 [kJ/mol]
    Induction sSAPT0               -0.00028937 [mEh]      -0.00018158 [kcal/mol]      -0.00075973 [kJ/mol]
    Dispersion sSAPT0              -0.00086919 [mEh]      -0.00054543 [kcal/mol]      -0.00228206 [kJ/mol]
  Total sSAPT0                      0.11526307 [mEh]       0.07232867 [kcal/mol]       0.30262314 [kJ/mol]
  --------------------------------------------------------------------------------------------------------

*** Psi4 exiting successfully. Buy a developer a beer!
