                               Psi4 1.4rc3

  ==> Input File <==

--------------------------------------------------------------------------
# PSI4 file produced by CrystaLattE

# Generated from:               imidazole.xyz
# Psithon input for N-mer:      2mer-0+68
# Number of atoms per monomer:  [9, 9]
# Number of replicas:           2
# COM priority:                 1.280013781763e-04
# Minimum COM separations:      10.500
# Separation priority:          1.861548079998e-04
# Minimum monomer separations:  9.268
# Cutoff priority:              1.062916160755e-05
# Nuclear repulsion energy:     392.9316529164735

memory 7 GB

molecule Dimer_0_68 {
  N           -4.29309621      -3.06837431       5.30516231
  N           -2.15847371      -2.92627296       1.72037448
  H           -0.02545587      -6.35903575       2.22046452
  H           -2.68566968      -6.53260241       6.61445954
  H           -4.74388423      -0.00609006       2.75615968
  H           -1.41045540      -2.24723147       0.00000000
  C           -1.43737991      -5.07504848       2.94065891
  C           -2.76900782      -5.14609916       5.13522880
  C           -3.85955036      -1.77728198       3.21093411
--
  N            1.07081333       7.08172265      21.48930603
  N            3.20543583       7.22382401      17.90451820
  H            5.33845367       3.79106122      18.40460824
  H            2.67823986       3.61749456      22.79860326
  H            0.62002531      10.14400691      18.94030340
  H            3.95345414       7.90286550      16.18414372
  C            3.92652963       5.07504848      19.12480264
  C            2.59490172       5.00399780      21.31937252
  C            1.50435918       8.37281499      19.39507784
units = au
no_com
no_reorient
}

set {
  e_convergence 10
  d_convergence 10
  scf_type df
  mp2_type df
  cc_type df
  freeze_core true
}

energy('sapt0/aug-cc-pvdz')

--------------------------------------------------------------------------

  //              Dimer HF             //
    Molecular point group: c1
  Charge       = 0
  Multiplicity = 1
  Basis Set: AUG-CC-PVDZ
    Blend: AUG-CC-PVDZ
  Basis Set: (AUG-CC-PVDZ AUX)
    Blend: AUG-CC-PVDZ-JKFIT
  @DF-RHF Final Energy:  -449.68726094842788
    Total Energy =                       -449.6872609484279337
  //            Monomer A HF           //
    Molecular point group: c1
  Multiplicity = 1
  Basis Set: AUG-CC-PVDZ
    Blend: AUG-CC-PVDZ
  Basis Set: (AUG-CC-PVDZ AUX)
    Blend: AUG-CC-PVDZ-JKFIT
  @DF-RHF Final Energy:  -224.84369752745536
    Total Energy =                       -224.8436975274553618
  //            Monomer B HF           //
    Molecular point group: c1

    Geometry (in Bohr), charge = 0, multiplicity = 1:

       Center              X                  Y                   Z               Mass
    ------------   -----------------  -----------------  -----------------  -----------------
      Gh(N)          -4.293096210000    -3.068374310000     5.305162310000    14.003074004430
      Gh(N)          -2.158473710000    -2.926272960000     1.720374480000    14.003074004430
      Gh(H)          -0.025455870000    -6.359035750000     2.220464520000     1.007825032230
      Gh(H)          -2.685669680000    -6.532602410000     6.614459540000     1.007825032230
      Gh(H)          -4.743884230000    -0.006090060000     2.756159680000     1.007825032230
      Gh(H)          -1.410455400000    -2.247231470000     0.000000000000     1.007825032230
      Gh(C)          -1.437379910000    -5.075048480000     2.940658910000    12.000000000000
      Gh(C)          -2.769007820000    -5.146099160000     5.135228800000    12.000000000000
      Gh(C)          -3.859550360000    -1.777281980000     3.210934110000    12.000000000000
         N            1.070813330000     7.081722650000    21.489306030000    14.003074004430
         N            3.205435830000     7.223824010000    17.904518200000    14.003074004430
         H            5.338453670000     3.791061220000    18.404608240000     1.007825032230
         H            2.678239860000     3.617494560000    22.798603260000     1.007825032230
         H            0.620025310000    10.144006910000    18.940303400000     1.007825032230
         H            3.953454140000     7.902865500000    16.184143720000     1.007825032230
         C            3.926529630000     5.075048480000    19.124802640000    12.000000000000
         C            2.594901720000     5.003997800000    21.319372520000    12.000000000000
         C            1.504359180000     8.372814990000    19.395077840000    12.000000000000

  Charge       = 0
  Multiplicity = 1
  Basis Set: AUG-CC-PVDZ
    Blend: AUG-CC-PVDZ
  Basis Set: (AUG-CC-PVDZ AUX)
    Blend: AUG-CC-PVDZ-JKFIT

    Orbital Energies [Eh]
    ---------------------

    Doubly Occupied:

       1A    -15.637071     2A    -15.551216     3A    -11.300917
       4A    -11.263159     5A    -11.245653     6A     -1.352867
       7A     -1.169098     8A     -1.012098     9A     -0.824390
      10A     -0.803731    11A     -0.760666    12A     -0.610096
      13A     -0.603958    14A     -0.601922    15A     -0.570942
      16A     -0.435483    17A     -0.400464    18A     -0.320685

  @DF-RHF Final Energy:  -224.84369721686704

   => Energetics <=

    Nuclear Repulsion Energy =            164.0866959211319340
    One-Electron Energy =                -628.9319582795312726
    Two-Electron Energy =                 240.0015651415322964
    Total Energy =                       -224.8436972168670422

  Dipole Moment: [D]
     X:     2.0430      Y:     0.4150      Z:    -3.3867     Total:     3.9769

    SAPT Results
  --------------------------------------------------------------------------------------------------------
    Electrostatics                  0.13633378 [mEh]       0.08555074 [kcal/mol]       0.35794430 [kJ/mol]
      Elst10,r                      0.13633378 [mEh]       0.08555074 [kcal/mol]       0.35794430 [kJ/mol]

    Exchange                        0.00000057 [mEh]       0.00000036 [kcal/mol]       0.00000150 [kJ/mol]
      Exch10                        0.00000057 [mEh]       0.00000036 [kcal/mol]       0.00000150 [kJ/mol]
      Exch10(S^2)                   0.00000057 [mEh]       0.00000036 [kcal/mol]       0.00000150 [kJ/mol]

    Induction                      -0.00253846 [mEh]      -0.00159291 [kcal/mol]      -0.00666473 [kJ/mol]
      Ind20,r                      -0.00257490 [mEh]      -0.00161577 [kcal/mol]      -0.00676039 [kJ/mol]
      Exch-Ind20,r                  0.00000228 [mEh]       0.00000143 [kcal/mol]       0.00000599 [kJ/mol]
      delta HF,r (2)                0.00003415 [mEh]       0.00002143 [kcal/mol]       0.00008966 [kJ/mol]

    Dispersion                     -0.01874496 [mEh]      -0.01176264 [kcal/mol]      -0.04921488 [kJ/mol]
      Disp20                       -0.01874520 [mEh]      -0.01176279 [kcal/mol]      -0.04921552 [kJ/mol]
      Exch-Disp20                   0.00000025 [mEh]       0.00000015 [kcal/mol]       0.00000065 [kJ/mol]
      Disp20 (SS)                  -0.00937260 [mEh]      -0.00588140 [kcal/mol]      -0.02460776 [kJ/mol]
      Disp20 (OS)                  -0.00937260 [mEh]      -0.00588140 [kcal/mol]      -0.02460776 [kJ/mol]
      Exch-Disp20 (SS)              0.00000020 [mEh]       0.00000013 [kcal/mol]       0.00000054 [kJ/mol]
      Exch-Disp20 (OS)              0.00000004 [mEh]       0.00000003 [kcal/mol]       0.00000011 [kJ/mol]

  Total HF                          0.13379589 [mEh]       0.08395819 [kcal/mol]       0.35128107 [kJ/mol]
  Total SAPT0                       0.11505094 [mEh]       0.07219555 [kcal/mol]       0.30206620 [kJ/mol]

  Special recipe for scaled SAPT0 (see Manual):
    Electrostatics sSAPT0           0.13633378 [mEh]       0.08555074 [kcal/mol]       0.35794430 [kJ/mol]
    Exchange sSAPT0                 0.00000057 [mEh]       0.00000036 [kcal/mol]       0.00000150 [kJ/mol]
    Induction sSAPT0               -0.00253846 [mEh]      -0.00159291 [kcal/mol]      -0.00666473 [kJ/mol]
    Dispersion sSAPT0              -0.01874496 [mEh]      -0.01176264 [kcal/mol]      -0.04921488 [kJ/mol]
  Total sSAPT0                      0.11505094 [mEh]       0.07219555 [kcal/mol]       0.30206620 [kJ/mol]
  --------------------------------------------------------------------------------------------------------

*** Psi4 exiting successfully. Buy a developer a beer!
