                               Psi4 1.4rc3

  ==> Input File <==

--------------------------------------------------------------------------
# PSI4 file produced by CrystaLattE

# Generated from:               imidazole.xyz
# Psithon input for N-mer:      2mer-0+65
# Number of atoms per monomer:  [9, 9]
# Number of replicas:           1
# COM priority:                 1.868029969297e-04
# Minimum COM separations:      9.257
# Separation priority:          4.424464947173e-04
# Minimum monomer separations:  6.945
# Cutoff priority:              3.371431537276e-05
# Nuclear repulsion energy:     402.47525790865086

memory 7 GB

molecule Dimer_0_65 {
  N           -4.29309621      -3.06837431       5.30516231
  N           -2.15847371      -2.92627296       1.72037448
  H           -0.02545587      -6.35903575       2.22046452
  H           -2.68566968      -6.53260241       6.61445954
  H           -4.74388423      -0.00609006       2.75615968
  H           -1.41045540      -2.24723147       0.00000000
  C           -1.43737991      -5.07504848       2.94065891
  C           -2.76900782      -5.14609916       5.13522880
  C           -3.85955036      -1.77728198       3.21093411
--
  N          -13.69417250       3.97173294      11.49074204
  N          -15.82879500       3.82963158      15.07552988
  H          -17.96181285       7.26239438      14.57543984
  H          -15.30159903       7.43596104      10.18144482
  H          -13.24338449       0.90944869      14.03974468
  H          -16.57681331       3.15059010      16.79590435
  C          -16.54988880       5.97840711      13.85524544
  C          -15.21826089       6.04945779      11.66067555
  C          -14.12771836       2.68064061      13.58497024
units = au
no_com
no_reorient
}

set {
  e_convergence 10
  d_convergence 10
  scf_type df
  mp2_type df
  cc_type df
  freeze_core true
}

energy('sapt0/aug-cc-pvdz')

--------------------------------------------------------------------------

  //              Dimer HF             //
    Molecular point group: c1
  Charge       = 0
  Multiplicity = 1
  Basis Set: AUG-CC-PVDZ
    Blend: AUG-CC-PVDZ
  Basis Set: (AUG-CC-PVDZ AUX)
    Blend: AUG-CC-PVDZ-JKFIT
  @DF-RHF Final Energy:  -449.68688742207678
    Total Energy =                       -449.6868874220767793
  //            Monomer A HF           //
    Molecular point group: c1
  Multiplicity = 1
  Basis Set: AUG-CC-PVDZ
    Blend: AUG-CC-PVDZ
  Basis Set: (AUG-CC-PVDZ AUX)
    Blend: AUG-CC-PVDZ-JKFIT
  @DF-RHF Final Energy:  -224.84370426087492
    Total Energy =                       -224.8437042608749152
  //            Monomer B HF           //
    Molecular point group: c1

    Geometry (in Bohr), charge = 0, multiplicity = 1:

       Center              X                  Y                   Z               Mass
    ------------   -----------------  -----------------  -----------------  -----------------
      Gh(N)          -4.293096210000    -3.068374310000     5.305162310000    14.003074004430
      Gh(N)          -2.158473710000    -2.926272960000     1.720374480000    14.003074004430
      Gh(H)          -0.025455870000    -6.359035750000     2.220464520000     1.007825032230
      Gh(H)          -2.685669680000    -6.532602410000     6.614459540000     1.007825032230
      Gh(H)          -4.743884230000    -0.006090060000     2.756159680000     1.007825032230
      Gh(H)          -1.410455400000    -2.247231470000     0.000000000000     1.007825032230
      Gh(C)          -1.437379910000    -5.075048480000     2.940658910000    12.000000000000
      Gh(C)          -2.769007820000    -5.146099160000     5.135228800000    12.000000000000
      Gh(C)          -3.859550360000    -1.777281980000     3.210934110000    12.000000000000
         N          -13.694172500000     3.971732940000    11.490742040000    14.003074004430
         N          -15.828795000000     3.829631580000    15.075529880000    14.003074004430
         H          -17.961812850000     7.262394380000    14.575439840000     1.007825032230
         H          -15.301599030000     7.435961040000    10.181444820000     1.007825032230
         H          -13.243384490000     0.909448690000    14.039744680000     1.007825032230
         H          -16.576813310000     3.150590100000    16.795904350000     1.007825032230
         C          -16.549888800000     5.978407110000    13.855245440000    12.000000000000
         C          -15.218260890000     6.049457790000    11.660675550000    12.000000000000
         C          -14.127718360000     2.680640610000    13.584970240000    12.000000000000

  Charge       = 0
  Multiplicity = 1
  Basis Set: AUG-CC-PVDZ
    Blend: AUG-CC-PVDZ
  Basis Set: (AUG-CC-PVDZ AUX)
    Blend: AUG-CC-PVDZ-JKFIT

    Orbital Energies [Eh]
    ---------------------

    Doubly Occupied:

       1A    -15.637073     2A    -15.551218     3A    -11.300914
       4A    -11.263161     5A    -11.245651     6A     -1.352867
       7A     -1.169099     8A     -1.012098     9A     -0.824390
      10A     -0.803731    11A     -0.760667    12A     -0.610096
      13A     -0.603958    14A     -0.601923    15A     -0.570942
      16A     -0.435483    17A     -0.400465    18A     -0.320685

  @DF-RHF Final Energy:  -224.84370426174183

   => Energetics <=

    Nuclear Repulsion Energy =            164.0866959065581341
    One-Electron Energy =                -628.9319599786301751
    Two-Electron Energy =                 240.0015598103302068
    Total Energy =                       -224.8437042617418342

  Dipole Moment: [D]
     X:    -2.0430      Y:    -0.4150      Z:     3.3867     Total:     3.9769

    SAPT Results
  --------------------------------------------------------------------------------------------------------
    Electrostatics                  0.54206774 [mEh]       0.34015264 [kcal/mol]       1.42319866 [kJ/mol]
      Elst10,r                      0.54206774 [mEh]       0.34015264 [kcal/mol]       1.42319866 [kJ/mol]

    Exchange                        0.00001496 [mEh]       0.00000939 [kcal/mol]       0.00003928 [kJ/mol]
      Exch10                        0.00001496 [mEh]       0.00000939 [kcal/mol]       0.00003928 [kJ/mol]
      Exch10(S^2)                   0.00001496 [mEh]       0.00000939 [kcal/mol]       0.00003928 [kJ/mol]

    Induction                      -0.02098216 [mEh]      -0.01316651 [kcal/mol]      -0.05508866 [kJ/mol]
      Ind20,r                      -0.02178382 [mEh]      -0.01366956 [kcal/mol]      -0.05719342 [kJ/mol]
      Exch-Ind20,r                  0.00001316 [mEh]       0.00000826 [kcal/mol]       0.00003456 [kJ/mol]
      delta HF,r (2)                0.00078850 [mEh]       0.00049479 [kcal/mol]       0.00207020 [kJ/mol]

    Dispersion                     -0.06185054 [mEh]      -0.03881180 [kcal/mol]      -0.16238857 [kJ/mol]
      Disp20                       -0.06185532 [mEh]      -0.03881480 [kcal/mol]      -0.16240111 [kJ/mol]
      Exch-Disp20                   0.00000478 [mEh]       0.00000300 [kcal/mol]       0.00001254 [kJ/mol]
      Disp20 (SS)                  -0.03092766 [mEh]      -0.01940740 [kcal/mol]      -0.08120055 [kJ/mol]
      Disp20 (OS)                  -0.03092766 [mEh]      -0.01940740 [kcal/mol]      -0.08120055 [kJ/mol]
      Exch-Disp20 (SS)              0.00000386 [mEh]       0.00000242 [kcal/mol]       0.00001013 [kJ/mol]
      Exch-Disp20 (OS)              0.00000092 [mEh]       0.00000058 [kcal/mol]       0.00000241 [kJ/mol]

  Total HF                          0.52110054 [mEh]       0.32699553 [kcal/mol]       1.36814928 [kJ/mol]
  Total SAPT0                       0.45925000 [mEh]       0.28818373 [kcal/mol]       1.20576071 [kJ/mol]

  Special recipe for scaled SAPT0 (see Manual):
    Electrostatics sSAPT0           0.54206774 [mEh]       0.34015264 [kcal/mol]       1.42319866 [kJ/mol]
    Exchange sSAPT0                 0.00001496 [mEh]       0.00000939 [kcal/mol]       0.00003928 [kJ/mol]
    Induction sSAPT0               -0.02098216 [mEh]      -0.01316651 [kcal/mol]      -0.05508866 [kJ/mol]
    Dispersion sSAPT0              -0.06185054 [mEh]      -0.03881180 [kcal/mol]      -0.16238857 [kJ/mol]
  Total sSAPT0                      0.45925000 [mEh]       0.28818373 [kcal/mol]       1.20576071 [kJ/mol]
  --------------------------------------------------------------------------------------------------------

*** Psi4 exiting successfully. Buy a developer a beer!
