                               Psi4 1.4rc3

  ==> Input File <==

--------------------------------------------------------------------------
# PSI4 file produced by CrystaLattE

# Generated from:               imidazole.xyz
# Psithon input for N-mer:      2mer-0+506
# Number of atoms per monomer:  [9, 9]
# Number of replicas:           1
# COM priority:                 1.368274362506e-05
# Minimum COM separations:      22.125
# Separation priority:          2.632552115839e-05
# Minimum monomer separations:  17.789
# Cutoff priority:              7.831338028147e-07
# Nuclear repulsion energy:     359.2788757385738

memory 7 GB

molecule Dimer_0_506 {
  N           -4.29309621      -3.06837431       5.30516231
  N           -2.15847371      -2.92627296       1.72037448
  H           -0.02545587      -6.35903575       2.22046452
  H           -2.68566968      -6.53260241       6.61445954
  H           -4.74388423      -0.00609006       2.75615968
  H           -1.41045540      -2.24723147       0.00000000
  C           -1.43737991      -5.07504848       2.94065891
  C           -2.76900782      -5.14609916       5.13522880
  C           -3.85955036      -1.77728198       3.21093411
--
  N           23.92676224     -36.62865492      -4.69340168
  N           21.79213974     -36.77075628      -1.10861384
  H           19.65912190     -33.33799348      -1.60870389
  H           22.31933571     -33.16442682      -6.00269891
  H           24.37755026     -39.69093917      -2.14439904
  H           21.04412143     -37.44979776       0.61176063
  C           21.07104594     -34.62198075      -2.32889828
  C           22.40267385     -34.55093007      -4.52346817
  C           23.49321639     -37.91974725      -2.59917348
units = au
no_com
no_reorient
}

set {
  e_convergence 10
  d_convergence 10
  scf_type df
  mp2_type df
  cc_type df
  freeze_core true
}

energy('sapt0/aug-cc-pvdz')

--------------------------------------------------------------------------

  //              Dimer HF             //
    Molecular point group: c1
  Charge       = 0
  Multiplicity = 1
  Basis Set: AUG-CC-PVDZ
    Blend: AUG-CC-PVDZ
  Basis Set: (AUG-CC-PVDZ AUX)
    Blend: AUG-CC-PVDZ-JKFIT
  @DF-RHF Final Energy:  -449.68740558959723
    Total Energy =                       -449.6874055895972333
  //            Monomer A HF           //
    Molecular point group: c1
  Multiplicity = 1
  Basis Set: AUG-CC-PVDZ
    Blend: AUG-CC-PVDZ
  Basis Set: (AUG-CC-PVDZ AUX)
    Blend: AUG-CC-PVDZ-JKFIT
  @DF-RHF Final Energy:  -224.84369627698231
    Total Energy =                       -224.8436962769823140
  //            Monomer B HF           //
    Molecular point group: c1

    Geometry (in Bohr), charge = 0, multiplicity = 1:

       Center              X                  Y                   Z               Mass
    ------------   -----------------  -----------------  -----------------  -----------------
      Gh(N)          -4.293096210000    -3.068374310000     5.305162310000    14.003074004430
      Gh(N)          -2.158473710000    -2.926272960000     1.720374480000    14.003074004430
      Gh(H)          -0.025455870000    -6.359035750000     2.220464520000     1.007825032230
      Gh(H)          -2.685669680000    -6.532602410000     6.614459540000     1.007825032230
      Gh(H)          -4.743884230000    -0.006090060000     2.756159680000     1.007825032230
      Gh(H)          -1.410455400000    -2.247231470000     0.000000000000     1.007825032230
      Gh(C)          -1.437379910000    -5.075048480000     2.940658910000    12.000000000000
      Gh(C)          -2.769007820000    -5.146099160000     5.135228800000    12.000000000000
      Gh(C)          -3.859550360000    -1.777281980000     3.210934110000    12.000000000000
         N           23.926762240000   -36.628654920000    -4.693401680000    14.003074004430
         N           21.792139740000   -36.770756280000    -1.108613840000    14.003074004430
         H           19.659121900000   -33.337993480000    -1.608703890000     1.007825032230
         H           22.319335710000   -33.164426820000    -6.002698910000     1.007825032230
         H           24.377550260000   -39.690939170000    -2.144399040000     1.007825032230
         H           21.044121430000   -37.449797760000     0.611760630000     1.007825032230
         C           21.071045940000   -34.621980750000    -2.328898280000    12.000000000000
         C           22.402673850000   -34.550930070000    -4.523468170000    12.000000000000
         C           23.493216390000   -37.919747250000    -2.599173480000    12.000000000000

  Charge       = 0
  Multiplicity = 1
  Basis Set: AUG-CC-PVDZ
    Blend: AUG-CC-PVDZ
  Basis Set: (AUG-CC-PVDZ AUX)
    Blend: AUG-CC-PVDZ-JKFIT

    Orbital Energies [Eh]
    ---------------------

    Doubly Occupied:

       1A    -15.637071     2A    -15.551216     3A    -11.300916
       4A    -11.263160     5A    -11.245653     6A     -1.352867
       7A     -1.169098     8A     -1.012098     9A     -0.824390
      10A     -0.803731    11A     -0.760666    12A     -0.610096
      13A     -0.603958    14A     -0.601922    15A     -0.570942
      16A     -0.435483    17A     -0.400464    18A     -0.320685

  @DF-RHF Final Energy:  -224.84369627872445

   => Energetics <=

    Nuclear Repulsion Energy =            164.0866958544628176
    One-Electron Energy =                -628.9319560199336365
    Two-Electron Energy =                 240.0015638867463394
    Total Energy =                       -224.8436962787244511

  Dipole Moment: [D]
     X:    -2.0431      Y:    -0.4150      Z:     3.3867     Total:     3.9769

    SAPT Results
  --------------------------------------------------------------------------------------------------------
    Electrostatics                 -0.01300237 [mEh]      -0.00815911 [kcal/mol]      -0.03413773 [kJ/mol]
      Elst10,r                     -0.01300237 [mEh]      -0.00815911 [kcal/mol]      -0.03413773 [kJ/mol]

    Exchange                        0.00000000 [mEh]       0.00000000 [kcal/mol]       0.00000000 [kJ/mol]
      Exch10                        0.00000000 [mEh]       0.00000000 [kcal/mol]       0.00000000 [kJ/mol]
      Exch10(S^2)                   0.00000000 [mEh]       0.00000000 [kcal/mol]       0.00000000 [kJ/mol]

    Induction                      -0.00003152 [mEh]      -0.00001978 [kcal/mol]      -0.00008275 [kJ/mol]
      Ind20,r                      -0.00003244 [mEh]      -0.00002036 [kcal/mol]      -0.00008517 [kJ/mol]
      Exch-Ind20,r                  0.00000000 [mEh]       0.00000000 [kcal/mol]       0.00000000 [kJ/mol]
      delta HF,r (2)                0.00000093 [mEh]       0.00000058 [kcal/mol]       0.00000243 [kJ/mol]

    Dispersion                     -0.00027697 [mEh]      -0.00017380 [kcal/mol]      -0.00072719 [kJ/mol]
      Disp20                       -0.00027697 [mEh]      -0.00017380 [kcal/mol]      -0.00072719 [kJ/mol]
      Exch-Disp20                   0.00000000 [mEh]       0.00000000 [kcal/mol]       0.00000000 [kJ/mol]
      Disp20 (SS)                  -0.00013849 [mEh]      -0.00008690 [kcal/mol]      -0.00036360 [kJ/mol]
      Disp20 (OS)                  -0.00013849 [mEh]      -0.00008690 [kcal/mol]      -0.00036360 [kJ/mol]
      Exch-Disp20 (SS)              0.00000000 [mEh]       0.00000000 [kcal/mol]       0.00000000 [kJ/mol]
      Exch-Disp20 (OS)              0.00000000 [mEh]       0.00000000 [kcal/mol]       0.00000000 [kJ/mol]

  Total HF                         -0.01303389 [mEh]      -0.00817889 [kcal/mol]      -0.03422047 [kJ/mol]
  Total SAPT0                      -0.01331086 [mEh]      -0.00835269 [kcal/mol]      -0.03494767 [kJ/mol]

  Special recipe for scaled SAPT0 (see Manual):
    Electrostatics sSAPT0          -0.01300237 [mEh]      -0.00815911 [kcal/mol]      -0.03413773 [kJ/mol]
    Exchange sSAPT0                 0.00000000 [mEh]       0.00000000 [kcal/mol]       0.00000000 [kJ/mol]
    Induction sSAPT0               -0.00003152 [mEh]      -0.00001978 [kcal/mol]      -0.00008275 [kJ/mol]
    Dispersion sSAPT0              -0.00027697 [mEh]      -0.00017380 [kcal/mol]      -0.00072719 [kJ/mol]
  Total sSAPT0                     -0.01331086 [mEh]      -0.00835269 [kcal/mol]      -0.03494767 [kJ/mol]
  --------------------------------------------------------------------------------------------------------

*** Psi4 exiting successfully. Buy a developer a beer!
