                               Psi4 1.4rc3

  ==> Input File <==

--------------------------------------------------------------------------
# PSI4 file produced by CrystaLattE

# Generated from:               imidazole.xyz
# Psithon input for N-mer:      2mer-0+250
# Number of atoms per monomer:  [9, 9]
# Number of replicas:           2
# COM priority:                 2.308866211379e-05
# Minimum COM separations:      18.584
# Separation priority:          2.939263090365e-05
# Minimum monomer separations:  17.147
# Cutoff priority:              9.070918844193e-07
# Nuclear repulsion energy:     364.95329525511704

memory 7 GB

molecule Dimer_0_250 {
  N           -4.29309621      -3.06837431       5.30516231
  N           -2.15847371      -2.92627296       1.72037448
  H           -0.02545587      -6.35903575       2.22046452
  H           -2.68566968      -6.53260241       6.61445954
  H           -4.74388423      -0.00609006       2.75615968
  H           -1.41045540      -2.24723147       0.00000000
  C           -1.43737991      -5.07504848       2.94065891
  C           -2.76900782      -5.14609916       5.13522880
  C           -3.85955036      -1.77728198       3.21093411
--
  N           24.36346665      17.23181962       5.30516231
  N           26.49808915      17.37392098       1.72037448
  H           28.63110699      13.94115818       2.22046452
  H           25.97089318      13.76759152       6.61445954
  H           23.91267863      20.29410387       2.75615968
  H           27.24610745      18.05296246       0.00000000
  C           27.21918294      15.22514545       2.94065891
  C           25.88755504      15.15409477       5.13522880
  C           24.79701250      18.52291195       3.21093411
units = au
no_com
no_reorient
}

set {
  e_convergence 10
  d_convergence 10
  scf_type df
  mp2_type df
  cc_type df
  freeze_core true
}

energy('sapt0/aug-cc-pvdz')

--------------------------------------------------------------------------

  //              Dimer HF             //
    Molecular point group: c1
  Charge       = 0
  Multiplicity = 1
  Basis Set: AUG-CC-PVDZ
    Blend: AUG-CC-PVDZ
  Basis Set: (AUG-CC-PVDZ AUX)
    Blend: AUG-CC-PVDZ-JKFIT
  @DF-RHF Final Energy:  -449.68737378319884
    Total Energy =                       -449.6873737831988365
  //            Monomer A HF           //
    Molecular point group: c1
  Multiplicity = 1
  Basis Set: AUG-CC-PVDZ
    Blend: AUG-CC-PVDZ
  Basis Set: (AUG-CC-PVDZ AUX)
    Blend: AUG-CC-PVDZ-JKFIT
  @DF-RHF Final Energy:  -224.84369627819848
    Total Energy =                       -224.8436962781984789
  //            Monomer B HF           //
    Molecular point group: c1

    Geometry (in Bohr), charge = 0, multiplicity = 1:

       Center              X                  Y                   Z               Mass
    ------------   -----------------  -----------------  -----------------  -----------------
      Gh(N)          -4.293096210000    -3.068374310000     5.305162310000    14.003074004430
      Gh(N)          -2.158473710000    -2.926272960000     1.720374480000    14.003074004430
      Gh(H)          -0.025455870000    -6.359035750000     2.220464520000     1.007825032230
      Gh(H)          -2.685669680000    -6.532602410000     6.614459540000     1.007825032230
      Gh(H)          -4.743884230000    -0.006090060000     2.756159680000     1.007825032230
      Gh(H)          -1.410455400000    -2.247231470000     0.000000000000     1.007825032230
      Gh(C)          -1.437379910000    -5.075048480000     2.940658910000    12.000000000000
      Gh(C)          -2.769007820000    -5.146099160000     5.135228800000    12.000000000000
      Gh(C)          -3.859550360000    -1.777281980000     3.210934110000    12.000000000000
         N           24.363466650000    17.231819620000     5.305162310000    14.003074004430
         N           26.498089150000    17.373920980000     1.720374480000    14.003074004430
         H           28.631106990000    13.941158180000     2.220464520000     1.007825032230
         H           25.970893180000    13.767591520000     6.614459540000     1.007825032230
         H           23.912678630000    20.294103870000     2.756159680000     1.007825032230
         H           27.246107450000    18.052962460000     0.000000000000     1.007825032230
         C           27.219182940000    15.225145450000     2.940658910000    12.000000000000
         C           25.887555040000    15.154094770000     5.135228800000    12.000000000000
         C           24.797012500000    18.522911950000     3.210934110000    12.000000000000

  Charge       = 0
  Multiplicity = 1
  Basis Set: AUG-CC-PVDZ
    Blend: AUG-CC-PVDZ
  Basis Set: (AUG-CC-PVDZ AUX)
    Blend: AUG-CC-PVDZ-JKFIT

    Orbital Energies [Eh]
    ---------------------

    Doubly Occupied:

       1A    -15.637071     2A    -15.551216     3A    -11.300916
       4A    -11.263160     5A    -11.245653     6A     -1.352867
       7A     -1.169098     8A     -1.012098     9A     -0.824390
      10A     -0.803731    11A     -0.760666    12A     -0.610096
      13A     -0.603958    14A     -0.601922    15A     -0.570942
      16A     -0.435483    17A     -0.400464    18A     -0.320685

  @DF-RHF Final Energy:  -224.84369627903271

   => Energetics <=

    Nuclear Repulsion Energy =            164.0866960378733097
    One-Electron Energy =                -628.9319563881364274
    Two-Electron Energy =                 240.0015640712304048
    Total Energy =                       -224.8436962790327129

  Dipole Moment: [D]
     X:     2.0431      Y:     0.4150      Z:    -3.3867     Total:     3.9769

    SAPT Results
  --------------------------------------------------------------------------------------------------------
    Electrostatics                  0.01884386 [mEh]       0.01182470 [kcal/mol]       0.04947456 [kJ/mol]
      Elst10,r                      0.01884386 [mEh]       0.01182470 [kcal/mol]       0.04947456 [kJ/mol]

    Exchange                        0.00000000 [mEh]       0.00000000 [kcal/mol]       0.00000000 [kJ/mol]
      Exch10                        0.00000000 [mEh]       0.00000000 [kcal/mol]       0.00000000 [kJ/mol]
      Exch10(S^2)                   0.00000000 [mEh]       0.00000000 [kcal/mol]       0.00000000 [kJ/mol]

    Induction                      -0.00006983 [mEh]      -0.00004382 [kcal/mol]      -0.00018334 [kJ/mol]
      Ind20,r                      -0.00007730 [mEh]      -0.00004850 [kcal/mol]      -0.00020294 [kJ/mol]
      Exch-Ind20,r                  0.00000000 [mEh]       0.00000000 [kcal/mol]       0.00000000 [kJ/mol]
      delta HF,r (2)                0.00000747 [mEh]       0.00000469 [kcal/mol]       0.00001960 [kJ/mol]

    Dispersion                     -0.00056759 [mEh]      -0.00035617 [kcal/mol]      -0.00149020 [kJ/mol]
      Disp20                       -0.00056759 [mEh]      -0.00035617 [kcal/mol]      -0.00149020 [kJ/mol]
      Exch-Disp20                   0.00000000 [mEh]       0.00000000 [kcal/mol]       0.00000000 [kJ/mol]
      Disp20 (SS)                  -0.00028379 [mEh]      -0.00017808 [kcal/mol]      -0.00074510 [kJ/mol]
      Disp20 (OS)                  -0.00028379 [mEh]      -0.00017808 [kcal/mol]      -0.00074510 [kJ/mol]
      Exch-Disp20 (SS)              0.00000000 [mEh]       0.00000000 [kcal/mol]       0.00000000 [kJ/mol]
      Exch-Disp20 (OS)              0.00000000 [mEh]       0.00000000 [kcal/mol]       0.00000000 [kJ/mol]

  Total HF                          0.01877403 [mEh]       0.01178088 [kcal/mol]       0.04929122 [kJ/mol]
  Total SAPT0                       0.01820644 [mEh]       0.01142472 [kcal/mol]       0.04780101 [kJ/mol]

  Special recipe for scaled SAPT0 (see Manual):
    Electrostatics sSAPT0           0.01884386 [mEh]       0.01182470 [kcal/mol]       0.04947456 [kJ/mol]
    Exchange sSAPT0                 0.00000000 [mEh]       0.00000000 [kcal/mol]       0.00000000 [kJ/mol]
    Induction sSAPT0               -0.00006983 [mEh]      -0.00004382 [kcal/mol]      -0.00018334 [kJ/mol]
    Dispersion sSAPT0              -0.00056759 [mEh]      -0.00035617 [kcal/mol]      -0.00149020 [kJ/mol]
  Total sSAPT0                      0.01820644 [mEh]       0.01142472 [kcal/mol]       0.04780101 [kJ/mol]
  --------------------------------------------------------------------------------------------------------

*** Psi4 exiting successfully. Buy a developer a beer!
