                               Psi4 1.4rc3

  ==> Input File <==

--------------------------------------------------------------------------
# PSI4 file produced by CrystaLattE

# Generated from:               imidazole.xyz
# Psithon input for N-mer:      2mer-0+43
# Number of atoms per monomer:  [9, 9]
# Number of replicas:           1
# COM priority:                 3.425343089679e-04
# Minimum COM separations:      7.563
# Separation priority:          6.052052245022e-04
# Minimum monomer separations:  6.256
# Cutoff priority:              5.119217218936e-05
# Nuclear repulsion energy:     417.67809069609194

memory 7 GB

molecule Dimer_0_43 {
  N           -4.29309621      -3.06837431       5.30516231
  N           -2.15847371      -2.92627296       1.72037448
  H           -0.02545587      -6.35903575       2.22046452
  H           -2.68566968      -6.53260241       6.61445954
  H           -4.74388423      -0.00609006       2.75615968
  H           -1.41045540      -2.24723147       0.00000000
  C           -1.43737991      -5.07504848       2.94065891
  C           -2.76900782      -5.14609916       5.13522880
  C           -3.85955036      -1.77728198       3.21093411
--
  N           -4.72980061     -16.32846099      -4.69340168
  N           -6.86442311     -16.47056235      -1.10861384
  H           -8.99744096     -13.03779955      -1.60870389
  H           -6.33722715     -12.86423289      -6.00269891
  H           -4.27901260     -19.39074524      -2.14439904
  H           -7.61244142     -17.14960383       0.61176063
  C           -7.58551691     -14.32178682      -2.32889828
  C           -6.25388901     -14.25073614      -4.52346817
  C           -5.16334647     -17.61955332      -2.59917348
units = au
no_com
no_reorient
}

set {
  e_convergence 10
  d_convergence 10
  scf_type df
  mp2_type df
  cc_type df
  freeze_core true
}

energy('sapt0/aug-cc-pvdz')

--------------------------------------------------------------------------

  //              Dimer HF             //
    Molecular point group: c1
  Charge       = 0
  Multiplicity = 1
  Basis Set: AUG-CC-PVDZ
    Blend: AUG-CC-PVDZ
  Basis Set: (AUG-CC-PVDZ AUX)
    Blend: AUG-CC-PVDZ-JKFIT
  @DF-RHF Final Energy:  -449.68802162615037
    Total Energy =                       -449.6880216261504302
  //            Monomer A HF           //
    Molecular point group: c1
  Multiplicity = 1
  Basis Set: AUG-CC-PVDZ
    Blend: AUG-CC-PVDZ
  Basis Set: (AUG-CC-PVDZ AUX)
    Blend: AUG-CC-PVDZ-JKFIT
  @DF-RHF Final Energy:  -224.84372644475184
    Total Energy =                       -224.8437264447518373
  //            Monomer B HF           //
    Molecular point group: c1

    Geometry (in Bohr), charge = 0, multiplicity = 1:

       Center              X                  Y                   Z               Mass
    ------------   -----------------  -----------------  -----------------  -----------------
      Gh(N)          -4.293096210000    -3.068374310000     5.305162310000    14.003074004430
      Gh(N)          -2.158473710000    -2.926272960000     1.720374480000    14.003074004430
      Gh(H)          -0.025455870000    -6.359035750000     2.220464520000     1.007825032230
      Gh(H)          -2.685669680000    -6.532602410000     6.614459540000     1.007825032230
      Gh(H)          -4.743884230000    -0.006090060000     2.756159680000     1.007825032230
      Gh(H)          -1.410455400000    -2.247231470000     0.000000000000     1.007825032230
      Gh(C)          -1.437379910000    -5.075048480000     2.940658910000    12.000000000000
      Gh(C)          -2.769007820000    -5.146099160000     5.135228800000    12.000000000000
      Gh(C)          -3.859550360000    -1.777281980000     3.210934110000    12.000000000000
         N           -4.729800610000   -16.328460990000    -4.693401680000    14.003074004430
         N           -6.864423110000   -16.470562350000    -1.108613840000    14.003074004430
         H           -8.997440960000   -13.037799550000    -1.608703890000     1.007825032230
         H           -6.337227150000   -12.864232890000    -6.002698910000     1.007825032230
         H           -4.279012600000   -19.390745240000    -2.144399040000     1.007825032230
         H           -7.612441420000   -17.149603830000     0.611760630000     1.007825032230
         C           -7.585516910000   -14.321786820000    -2.328898280000    12.000000000000
         C           -6.253889010000   -14.250736140000    -4.523468170000    12.000000000000
         C           -5.163346470000   -17.619553320000    -2.599173480000    12.000000000000

  Charge       = 0
  Multiplicity = 1
  Basis Set: AUG-CC-PVDZ
    Blend: AUG-CC-PVDZ
  Basis Set: (AUG-CC-PVDZ AUX)
    Blend: AUG-CC-PVDZ-JKFIT

    Orbital Energies [Eh]
    ---------------------

    Doubly Occupied:

       1A    -15.637084     2A    -15.551226     3A    -11.300927
       4A    -11.263171     5A    -11.245669     6A     -1.352881
       7A     -1.169112     8A     -1.012113     9A     -0.824401
      10A     -0.803745    11A     -0.760681    12A     -0.610110
      13A     -0.603966    14A     -0.601937    15A     -0.570959
      16A     -0.435495    17A     -0.400475    18A     -0.320694

  @DF-RHF Final Energy:  -224.84372644541457

   => Energetics <=

    Nuclear Repulsion Energy =            164.0866958869485757
    One-Electron Energy =                -628.9315523183203140
    Two-Electron Energy =                 240.0011299859571636
    Total Energy =                       -224.8437264454145748

  Dipole Moment: [D]
     X:    -2.0421      Y:    -0.4142      Z:     3.3869     Total:     3.9765

    SAPT Results
  --------------------------------------------------------------------------------------------------------
    Electrostatics                 -0.55438721 [mEh]      -0.34788322 [kcal/mol]      -1.45554341 [kJ/mol]
      Elst10,r                     -0.55438721 [mEh]      -0.34788322 [kcal/mol]      -1.45554341 [kJ/mol]

    Exchange                        0.00099942 [mEh]       0.00062714 [kcal/mol]       0.00262397 [kJ/mol]
      Exch10                        0.00099942 [mEh]       0.00062714 [kcal/mol]       0.00262397 [kJ/mol]
      Exch10(S^2)                   0.00099942 [mEh]       0.00062714 [kcal/mol]       0.00262397 [kJ/mol]

    Induction                      -0.01534820 [mEh]      -0.00963114 [kcal/mol]      -0.04029669 [kJ/mol]
      Ind20,r                      -0.01519012 [mEh]      -0.00953195 [kcal/mol]      -0.03988166 [kJ/mol]
      Exch-Ind20,r                  0.00032792 [mEh]       0.00020577 [kcal/mol]       0.00086095 [kJ/mol]
      delta HF,r (2)               -0.00048599 [mEh]      -0.00030496 [kcal/mol]      -0.00127597 [kJ/mol]

    Dispersion                     -0.16149332 [mEh]      -0.10133859 [kcal/mol]      -0.42400067 [kJ/mol]
      Disp20                       -0.16181920 [mEh]      -0.10154308 [kcal/mol]      -0.42485625 [kJ/mol]
      Exch-Disp20                   0.00032588 [mEh]       0.00020449 [kcal/mol]       0.00085559 [kJ/mol]
      Disp20 (SS)                  -0.08090960 [mEh]      -0.05077154 [kcal/mol]      -0.21242813 [kJ/mol]
      Disp20 (OS)                  -0.08090960 [mEh]      -0.05077154 [kcal/mol]      -0.21242813 [kJ/mol]
      Exch-Disp20 (SS)              0.00024001 [mEh]       0.00015061 [kcal/mol]       0.00063016 [kJ/mol]
      Exch-Disp20 (OS)              0.00008586 [mEh]       0.00005388 [kcal/mol]       0.00022543 [kJ/mol]

  Total HF                         -0.56873598 [mEh]      -0.35688722 [kcal/mol]      -1.49321612 [kJ/mol]
  Total SAPT0                      -0.73022931 [mEh]      -0.45822581 [kcal/mol]      -1.91721679 [kJ/mol]

  Special recipe for scaled SAPT0 (see Manual):
    Electrostatics sSAPT0          -0.55438721 [mEh]      -0.34788322 [kcal/mol]      -1.45554341 [kJ/mol]
    Exchange sSAPT0                 0.00099942 [mEh]       0.00062714 [kcal/mol]       0.00262397 [kJ/mol]
    Induction sSAPT0               -0.01534820 [mEh]      -0.00963114 [kcal/mol]      -0.04029669 [kJ/mol]
    Dispersion sSAPT0              -0.16149332 [mEh]      -0.10133859 [kcal/mol]      -0.42400067 [kJ/mol]
  Total sSAPT0                     -0.73022931 [mEh]      -0.45822581 [kcal/mol]      -1.91721679 [kJ/mol]
  --------------------------------------------------------------------------------------------------------

*** Psi4 exiting successfully. Buy a developer a beer!
