                               Psi4 1.4rc3

  ==> Input File <==

--------------------------------------------------------------------------
# PSI4 file produced by CrystaLattE

# Generated from:               imidazole.xyz
# Psithon input for N-mer:      2mer-0+458
# Number of atoms per monomer:  [9, 9]
# Number of replicas:           1
# COM priority:                 1.403146759077e-05
# Minimum COM separations:      21.940
# Separation priority:          2.090669371618e-05
# Minimum monomer separations:  19.209
# Cutoff priority:              5.759442884564e-07
# Nuclear repulsion energy:     359.4428748362004

memory 7 GB

molecule Dimer_0_458 {
  N           -4.29309621      -3.06837431       5.30516231
  N           -2.15847371      -2.92627296       1.72037448
  H           -0.02545587      -6.35903575       2.22046452
  H           -2.68566968      -6.53260241       6.61445954
  H           -4.74388423      -0.00609006       2.75615968
  H           -1.41045540      -2.24723147       0.00000000
  C           -1.43737991      -5.07504848       2.94065891
  C           -2.76900782      -5.14609916       5.13522880
  C           -3.85955036      -1.77728198       3.21093411
--
  N          -15.45761969      -6.17836402     -37.06168912
  N          -17.59224220      -6.32046538     -33.47690129
  H          -19.72526004      -2.88770259     -33.97699133
  H          -17.06504623      -2.71413593     -38.37098635
  H          -15.00683168      -9.24064828     -34.51268649
  H          -18.34026050      -6.99950687     -31.75652681
  C          -18.31333599      -4.17168985     -34.69718572
  C          -16.98170809      -4.10063917     -36.89175561
  C          -15.89116555      -7.46945636     -34.96746092
units = au
no_com
no_reorient
}

set {
  e_convergence 10
  d_convergence 10
  scf_type df
  mp2_type df
  cc_type df
  freeze_core true
}

energy('sapt0/aug-cc-pvdz')

--------------------------------------------------------------------------

  //              Dimer HF             //
    Molecular point group: c1
  Charge       = 0
  Multiplicity = 1
  Basis Set: AUG-CC-PVDZ
    Blend: AUG-CC-PVDZ
  Basis Set: (AUG-CC-PVDZ AUX)
    Blend: AUG-CC-PVDZ-JKFIT
  @DF-RHF Final Energy:  -449.68739468248413
    Total Energy =                       -449.6873946824841255
  //            Monomer A HF           //
    Molecular point group: c1
  Multiplicity = 1
  Basis Set: AUG-CC-PVDZ
    Blend: AUG-CC-PVDZ
  Basis Set: (AUG-CC-PVDZ AUX)
    Blend: AUG-CC-PVDZ-JKFIT
  @DF-RHF Final Energy:  -224.84369627874901
    Total Energy =                       -224.8436962787490074
  //            Monomer B HF           //
    Molecular point group: c1

    Geometry (in Bohr), charge = 0, multiplicity = 1:

       Center              X                  Y                   Z               Mass
    ------------   -----------------  -----------------  -----------------  -----------------
      Gh(N)          -4.293096210000    -3.068374310000     5.305162310000    14.003074004430
      Gh(N)          -2.158473710000    -2.926272960000     1.720374480000    14.003074004430
      Gh(H)          -0.025455870000    -6.359035750000     2.220464520000     1.007825032230
      Gh(H)          -2.685669680000    -6.532602410000     6.614459540000     1.007825032230
      Gh(H)          -4.743884230000    -0.006090060000     2.756159680000     1.007825032230
      Gh(H)          -1.410455400000    -2.247231470000     0.000000000000     1.007825032230
      Gh(C)          -1.437379910000    -5.075048480000     2.940658910000    12.000000000000
      Gh(C)          -2.769007820000    -5.146099160000     5.135228800000    12.000000000000
      Gh(C)          -3.859550360000    -1.777281980000     3.210934110000    12.000000000000
         N          -15.457619690000    -6.178364020000   -37.061689120000    14.003074004430
         N          -17.592242200000    -6.320465380000   -33.476901290000    14.003074004430
         H          -19.725260040000    -2.887702590000   -33.976991330000     1.007825032230
         H          -17.065046230000    -2.714135930000   -38.370986350000     1.007825032230
         H          -15.006831680000    -9.240648280000   -34.512686490000     1.007825032230
         H          -18.340260500000    -6.999506870000   -31.756526810000     1.007825032230
         C          -18.313335990000    -4.171689850000   -34.697185720000    12.000000000000
         C          -16.981708090000    -4.100639170000   -36.891755610000    12.000000000000
         C          -15.891165550000    -7.469456360000   -34.967460920000    12.000000000000

  Charge       = 0
  Multiplicity = 1
  Basis Set: AUG-CC-PVDZ
    Blend: AUG-CC-PVDZ
  Basis Set: (AUG-CC-PVDZ AUX)
    Blend: AUG-CC-PVDZ-JKFIT

    Orbital Energies [Eh]
    ---------------------

    Doubly Occupied:

       1A    -15.637071     2A    -15.551216     3A    -11.300916
       4A    -11.263160     5A    -11.245653     6A     -1.352867
       7A     -1.169098     8A     -1.012098     9A     -0.824390
      10A     -0.803731    11A     -0.760666    12A     -0.610096
      13A     -0.603958    14A     -0.601922    15A     -0.570942
      16A     -0.435483    17A     -0.400464    18A     -0.320685

  @DF-RHF Final Energy:  -224.84369627803366

   => Energetics <=

    Nuclear Repulsion Energy =            164.0866958670057727
    One-Electron Energy =                -628.9319560477130153
    Two-Electron Energy =                 240.0015639026735528
    Total Energy =                       -224.8436962780336614

  Dipole Moment: [D]
     X:    -2.0431      Y:    -0.4150      Z:     3.3867     Total:     3.9769

    SAPT Results
  --------------------------------------------------------------------------------------------------------
    Electrostatics                 -0.00208424 [mEh]      -0.00130788 [kcal/mol]      -0.00547217 [kJ/mol]
      Elst10,r                     -0.00208424 [mEh]      -0.00130788 [kcal/mol]      -0.00547217 [kJ/mol]

    Exchange                        0.00000000 [mEh]       0.00000000 [kcal/mol]       0.00000000 [kJ/mol]
      Exch10                        0.00000000 [mEh]       0.00000000 [kcal/mol]       0.00000000 [kJ/mol]
      Exch10(S^2)                   0.00000000 [mEh]       0.00000000 [kcal/mol]       0.00000000 [kJ/mol]

    Induction                      -0.00004146 [mEh]      -0.00002602 [kcal/mol]      -0.00010886 [kJ/mol]
      Ind20,r                      -0.00003709 [mEh]      -0.00002327 [kcal/mol]      -0.00009737 [kJ/mol]
      Exch-Ind20,r                  0.00000000 [mEh]       0.00000000 [kcal/mol]       0.00000000 [kJ/mol]
      delta HF,r (2)               -0.00000437 [mEh]      -0.00000274 [kcal/mol]      -0.00001149 [kJ/mol]

    Dispersion                     -0.00022803 [mEh]      -0.00014309 [kcal/mol]      -0.00059870 [kJ/mol]
      Disp20                       -0.00022803 [mEh]      -0.00014309 [kcal/mol]      -0.00059870 [kJ/mol]
      Exch-Disp20                   0.00000000 [mEh]       0.00000000 [kcal/mol]       0.00000000 [kJ/mol]
      Disp20 (SS)                  -0.00011402 [mEh]      -0.00007155 [kcal/mol]      -0.00029935 [kJ/mol]
      Disp20 (OS)                  -0.00011402 [mEh]      -0.00007155 [kcal/mol]      -0.00029935 [kJ/mol]
      Exch-Disp20 (SS)              0.00000000 [mEh]       0.00000000 [kcal/mol]       0.00000000 [kJ/mol]
      Exch-Disp20 (OS)              0.00000000 [mEh]       0.00000000 [kcal/mol]       0.00000000 [kJ/mol]

  Total HF                         -0.00212570 [mEh]      -0.00133390 [kcal/mol]      -0.00558103 [kJ/mol]
  Total SAPT0                      -0.00235374 [mEh]      -0.00147699 [kcal/mol]      -0.00617973 [kJ/mol]

  Special recipe for scaled SAPT0 (see Manual):
    Electrostatics sSAPT0          -0.00208424 [mEh]      -0.00130788 [kcal/mol]      -0.00547217 [kJ/mol]
    Exchange sSAPT0                 0.00000000 [mEh]       0.00000000 [kcal/mol]       0.00000000 [kJ/mol]
    Induction sSAPT0               -0.00004146 [mEh]      -0.00002602 [kcal/mol]      -0.00010886 [kJ/mol]
    Dispersion sSAPT0              -0.00022803 [mEh]      -0.00014309 [kcal/mol]      -0.00059870 [kJ/mol]
  Total sSAPT0                     -0.00235374 [mEh]      -0.00147699 [kcal/mol]      -0.00617973 [kJ/mol]
  --------------------------------------------------------------------------------------------------------

*** Psi4 exiting successfully. Buy a developer a beer!
