                               Psi4 1.4rc3

  ==> Input File <==

--------------------------------------------------------------------------
# PSI4 file produced by CrystaLattE

# Generated from:               imidazole.xyz
# Psithon input for N-mer:      2mer-0+221
# Number of atoms per monomer:  [9, 9]
# Number of replicas:           1
# COM priority:                 2.960108702319e-05
# Minimum COM separations:      17.107
# Separation priority:          6.038967298455e-05
# Minimum monomer separations:  13.488
# Cutoff priority:              2.369282811902e-06
# Nuclear repulsion energy:     368.2567866383905

memory 7 GB

molecule Dimer_0_221 {
  N           -4.29309621      -3.06837431       5.30516231
  N           -2.15847371      -2.92627296       1.72037448
  H           -0.02545587      -6.35903575       2.22046452
  H           -2.68566968      -6.53260241       6.61445954
  H           -4.74388423      -0.00609006       2.75615968
  H           -1.41045540      -2.24723147       0.00000000
  C           -1.43737991      -5.07504848       2.94065891
  C           -2.76900782      -5.14609916       5.13522880
  C           -3.85955036      -1.77728198       3.21093411
--
  N          -13.69417250      24.27192687      11.49074204
  N          -15.82879500      24.12982552      15.07552988
  H          -17.96181285      27.56258831      14.57543984
  H          -15.30159903      27.73615497      10.18144482
  H          -13.24338449      21.20964262      14.03974468
  H          -16.57681331      23.45078403      16.79590435
  C          -16.54988880      26.27860104      13.85524544
  C          -15.21826089      26.34965172      11.66067555
  C          -14.12771836      22.98083454      13.58497024
units = au
no_com
no_reorient
}

set {
  e_convergence 10
  d_convergence 10
  scf_type df
  mp2_type df
  cc_type df
  freeze_core true
}

energy('sapt0/aug-cc-pvdz')

--------------------------------------------------------------------------

  //              Dimer HF             //
    Molecular point group: c1
  Charge       = 0
  Multiplicity = 1
  Basis Set: AUG-CC-PVDZ
    Blend: AUG-CC-PVDZ
  Basis Set: (AUG-CC-PVDZ AUX)
    Blend: AUG-CC-PVDZ-JKFIT
  @DF-RHF Final Energy:  -449.68746209624669
    Total Energy =                       -449.6874620962466906
  //            Monomer A HF           //
    Molecular point group: c1
  Multiplicity = 1
  Basis Set: AUG-CC-PVDZ
    Blend: AUG-CC-PVDZ
  Basis Set: (AUG-CC-PVDZ AUX)
    Blend: AUG-CC-PVDZ-JKFIT
  @DF-RHF Final Energy:  -224.84369627825311
    Total Energy =                       -224.8436962782531054
  //            Monomer B HF           //
    Molecular point group: c1

    Geometry (in Bohr), charge = 0, multiplicity = 1:

       Center              X                  Y                   Z               Mass
    ------------   -----------------  -----------------  -----------------  -----------------
      Gh(N)          -4.293096210000    -3.068374310000     5.305162310000    14.003074004430
      Gh(N)          -2.158473710000    -2.926272960000     1.720374480000    14.003074004430
      Gh(H)          -0.025455870000    -6.359035750000     2.220464520000     1.007825032230
      Gh(H)          -2.685669680000    -6.532602410000     6.614459540000     1.007825032230
      Gh(H)          -4.743884230000    -0.006090060000     2.756159680000     1.007825032230
      Gh(H)          -1.410455400000    -2.247231470000     0.000000000000     1.007825032230
      Gh(C)          -1.437379910000    -5.075048480000     2.940658910000    12.000000000000
      Gh(C)          -2.769007820000    -5.146099160000     5.135228800000    12.000000000000
      Gh(C)          -3.859550360000    -1.777281980000     3.210934110000    12.000000000000
         N          -13.694172500000    24.271926870000    11.490742040000    14.003074004430
         N          -15.828795000000    24.129825520000    15.075529880000    14.003074004430
         H          -17.961812850000    27.562588310000    14.575439840000     1.007825032230
         H          -15.301599030000    27.736154970000    10.181444820000     1.007825032230
         H          -13.243384490000    21.209642620000    14.039744680000     1.007825032230
         H          -16.576813310000    23.450784030000    16.795904350000     1.007825032230
         C          -16.549888800000    26.278601040000    13.855245440000    12.000000000000
         C          -15.218260890000    26.349651720000    11.660675550000    12.000000000000
         C          -14.127718360000    22.980834540000    13.584970240000    12.000000000000

  Charge       = 0
  Multiplicity = 1
  Basis Set: AUG-CC-PVDZ
    Blend: AUG-CC-PVDZ
  Basis Set: (AUG-CC-PVDZ AUX)
    Blend: AUG-CC-PVDZ-JKFIT

    Orbital Energies [Eh]
    ---------------------

    Doubly Occupied:

       1A    -15.637071     2A    -15.551216     3A    -11.300916
       4A    -11.263160     5A    -11.245653     6A     -1.352867
       7A     -1.169098     8A     -1.012098     9A     -0.824390
      10A     -0.803731    11A     -0.760666    12A     -0.610096
      13A     -0.603958    14A     -0.601922    15A     -0.570942
      16A     -0.435483    17A     -0.400464    18A     -0.320685

  @DF-RHF Final Energy:  -224.84369627831404

   => Energetics <=

    Nuclear Repulsion Energy =            164.0866959397855283
    One-Electron Energy =                -628.9319561891227295
    Two-Electron Energy =                 240.0015639710231881
    Total Energy =                       -224.8436962783140416

  Dipole Moment: [D]
     X:    -2.0431      Y:    -0.4150      Z:     3.3867     Total:     3.9769

    SAPT Results
  --------------------------------------------------------------------------------------------------------
    Electrostatics                 -0.06933497 [mEh]      -0.04350835 [kcal/mol]      -0.18203894 [kJ/mol]
      Elst10,r                     -0.06933497 [mEh]      -0.04350835 [kcal/mol]      -0.18203894 [kJ/mol]

    Exchange                       -0.00000000 [mEh]      -0.00000000 [kcal/mol]      -0.00000000 [kJ/mol]
      Exch10                       -0.00000000 [mEh]      -0.00000000 [kcal/mol]      -0.00000000 [kJ/mol]
      Exch10(S^2)                  -0.00000000 [mEh]      -0.00000000 [kcal/mol]      -0.00000000 [kJ/mol]

    Induction                      -0.00020471 [mEh]      -0.00012846 [kcal/mol]      -0.00053747 [kJ/mol]
      Ind20,r                      -0.00019706 [mEh]      -0.00012366 [kcal/mol]      -0.00051738 [kJ/mol]
      Exch-Ind20,r                  0.00000000 [mEh]       0.00000000 [kcal/mol]       0.00000000 [kJ/mol]
      delta HF,r (2)               -0.00000765 [mEh]      -0.00000480 [kcal/mol]      -0.00002008 [kJ/mol]

    Dispersion                     -0.00120963 [mEh]      -0.00075906 [kcal/mol]      -0.00317589 [kJ/mol]
      Disp20                       -0.00120963 [mEh]      -0.00075906 [kcal/mol]      -0.00317589 [kJ/mol]
      Exch-Disp20                   0.00000000 [mEh]       0.00000000 [kcal/mol]       0.00000000 [kJ/mol]
      Disp20 (SS)                  -0.00060482 [mEh]      -0.00037953 [kcal/mol]      -0.00158795 [kJ/mol]
      Disp20 (OS)                  -0.00060482 [mEh]      -0.00037953 [kcal/mol]      -0.00158795 [kJ/mol]
      Exch-Disp20 (SS)              0.00000000 [mEh]       0.00000000 [kcal/mol]       0.00000000 [kJ/mol]
      Exch-Disp20 (OS)              0.00000000 [mEh]       0.00000000 [kcal/mol]       0.00000000 [kJ/mol]

  Total HF                         -0.06953968 [mEh]      -0.04363681 [kcal/mol]      -0.18257640 [kJ/mol]
  Total SAPT0                      -0.07074931 [mEh]      -0.04439586 [kcal/mol]      -0.18575230 [kJ/mol]

  Special recipe for scaled SAPT0 (see Manual):
    Electrostatics sSAPT0          -0.06933497 [mEh]      -0.04350835 [kcal/mol]      -0.18203894 [kJ/mol]
    Exchange sSAPT0                -0.00000000 [mEh]      -0.00000000 [kcal/mol]      -0.00000000 [kJ/mol]
    Induction sSAPT0               -0.00020471 [mEh]      -0.00012846 [kcal/mol]      -0.00053747 [kJ/mol]
    Dispersion sSAPT0              -0.00120963 [mEh]      -0.00075906 [kcal/mol]      -0.00317589 [kJ/mol]
  Total sSAPT0                     -0.07074931 [mEh]      -0.04439586 [kcal/mol]      -0.18575230 [kJ/mol]
  --------------------------------------------------------------------------------------------------------

*** Psi4 exiting successfully. Buy a developer a beer!
