                               Psi4 1.4rc3

  ==> Input File <==

--------------------------------------------------------------------------
# PSI4 file produced by CrystaLattE

# Generated from:               imidazole.xyz
# Psithon input for N-mer:      2mer-0+174
# Number of atoms per monomer:  [9, 9]
# Number of replicas:           2
# COM priority:                 3.882631110985e-05
# Minimum COM separations:      15.628
# Separation priority:          6.566123726396e-05
# Minimum monomer separations:  13.117
# Cutoff priority:              2.648980426377e-06
# Nuclear repulsion energy:     371.9549764727465

memory 7 GB

molecule Dimer_0_174 {
  N           -4.29309621      -3.06837431       5.30516231
  N           -2.15847371      -2.92627296       1.72037448
  H           -0.02545587      -6.35903575       2.22046452
  H           -2.68566968      -6.53260241       6.61445954
  H           -4.74388423      -0.00609006       2.75615968
  H           -1.41045540      -2.24723147       0.00000000
  C           -1.43737991      -5.07504848       2.94065891
  C           -2.76900782      -5.14609916       5.13522880
  C           -3.85955036      -1.77728198       3.21093411
--
  N          -19.50310124     -11.25341251     -18.97105327
  N          -17.36847874     -11.39551386     -22.55584110
  H          -15.23546089      -7.96275107     -22.05575106
  H          -17.89567471      -7.78918441     -17.66175604
  H          -19.95388925     -14.31569676     -21.52005591
  H          -16.62046043     -12.07455535     -24.27621558
  C          -16.64738494      -9.24673834     -21.33555667
  C          -17.97901284      -9.17568766     -19.14098678
  C          -19.06955538     -12.54450484     -21.06528147
units = au
no_com
no_reorient
}

set {
  e_convergence 10
  d_convergence 10
  scf_type df
  mp2_type df
  cc_type df
  freeze_core true
}

energy('sapt0/aug-cc-pvdz')

--------------------------------------------------------------------------

  //              Dimer HF             //
    Molecular point group: c1
  Charge       = 0
  Multiplicity = 1
  Basis Set: AUG-CC-PVDZ
    Blend: AUG-CC-PVDZ
  Basis Set: (AUG-CC-PVDZ AUX)
    Blend: AUG-CC-PVDZ-JKFIT
  @DF-RHF Final Energy:  -449.68733764976758
    Total Energy =                       -449.6873376497675281
  //            Monomer A HF           //
    Molecular point group: c1
  Multiplicity = 1
  Basis Set: AUG-CC-PVDZ
    Blend: AUG-CC-PVDZ
  Basis Set: (AUG-CC-PVDZ AUX)
    Blend: AUG-CC-PVDZ-JKFIT
  @DF-RHF Final Energy:  -224.84369628106589
    Total Energy =                       -224.8436962810658883
  //            Monomer B HF           //
    Molecular point group: c1

    Geometry (in Bohr), charge = 0, multiplicity = 1:

       Center              X                  Y                   Z               Mass
    ------------   -----------------  -----------------  -----------------  -----------------
      Gh(N)          -4.293096210000    -3.068374310000     5.305162310000    14.003074004430
      Gh(N)          -2.158473710000    -2.926272960000     1.720374480000    14.003074004430
      Gh(H)          -0.025455870000    -6.359035750000     2.220464520000     1.007825032230
      Gh(H)          -2.685669680000    -6.532602410000     6.614459540000     1.007825032230
      Gh(H)          -4.743884230000    -0.006090060000     2.756159680000     1.007825032230
      Gh(H)          -1.410455400000    -2.247231470000     0.000000000000     1.007825032230
      Gh(C)          -1.437379910000    -5.075048480000     2.940658910000    12.000000000000
      Gh(C)          -2.769007820000    -5.146099160000     5.135228800000    12.000000000000
      Gh(C)          -3.859550360000    -1.777281980000     3.210934110000    12.000000000000
         N          -19.503101240000   -11.253412510000   -18.971053270000    14.003074004430
         N          -17.368478740000   -11.395513860000   -22.555841100000    14.003074004430
         H          -15.235460890000    -7.962751070000   -22.055751060000     1.007825032230
         H          -17.895674710000    -7.789184410000   -17.661756040000     1.007825032230
         H          -19.953889250000   -14.315696760000   -21.520055910000     1.007825032230
         H          -16.620460430000   -12.074555350000   -24.276215580000     1.007825032230
         C          -16.647384940000    -9.246738340000   -21.335556670000    12.000000000000
         C          -17.979012840000    -9.175687660000   -19.140986780000    12.000000000000
         C          -19.069555380000   -12.544504840000   -21.065281470000    12.000000000000

  Charge       = 0
  Multiplicity = 1
  Basis Set: AUG-CC-PVDZ
    Blend: AUG-CC-PVDZ
  Basis Set: (AUG-CC-PVDZ AUX)
    Blend: AUG-CC-PVDZ-JKFIT

    Orbital Energies [Eh]
    ---------------------

    Doubly Occupied:

       1A    -15.637071     2A    -15.551216     3A    -11.300916
       4A    -11.263160     5A    -11.245653     6A     -1.352867
       7A     -1.169098     8A     -1.012098     9A     -0.824390
      10A     -0.803731    11A     -0.760666    12A     -0.610096
      13A     -0.603958    14A     -0.601922    15A     -0.570942
      16A     -0.435483    17A     -0.400464    18A     -0.320685

  @DF-RHF Final Energy:  -224.84369628081265

   => Energetics <=

    Nuclear Repulsion Energy =            164.0866960224558397
    One-Electron Energy =                -628.9319563699774562
    Two-Electron Energy =                 240.0015640667089656
    Total Energy =                       -224.8436962808126509

  Dipole Moment: [D]
     X:     2.0431      Y:    -0.4150      Z:    -3.3867     Total:     3.9769

    SAPT Results
  --------------------------------------------------------------------------------------------------------
    Electrostatics                  0.05512402 [mEh]       0.03459084 [kcal/mol]       0.14472809 [kJ/mol]
      Elst10,r                      0.05512402 [mEh]       0.03459084 [kcal/mol]       0.14472809 [kJ/mol]

    Exchange                        0.00000000 [mEh]       0.00000000 [kcal/mol]       0.00000000 [kJ/mol]
      Exch10                        0.00000000 [mEh]       0.00000000 [kcal/mol]       0.00000000 [kJ/mol]
      Exch10(S^2)                   0.00000000 [mEh]       0.00000000 [kcal/mol]       0.00000000 [kJ/mol]

    Induction                      -0.00021191 [mEh]      -0.00013297 [kcal/mol]      -0.00055636 [kJ/mol]
      Ind20,r                      -0.00021740 [mEh]      -0.00013642 [kcal/mol]      -0.00057079 [kJ/mol]
      Exch-Ind20,r                  0.00000000 [mEh]       0.00000000 [kcal/mol]       0.00000000 [kJ/mol]
      delta HF,r (2)                0.00000550 [mEh]       0.00000345 [kcal/mol]       0.00001443 [kJ/mol]

    Dispersion                     -0.00179952 [mEh]      -0.00112922 [kcal/mol]      -0.00472464 [kJ/mol]
      Disp20                       -0.00179952 [mEh]      -0.00112922 [kcal/mol]      -0.00472464 [kJ/mol]
      Exch-Disp20                   0.00000000 [mEh]       0.00000000 [kcal/mol]       0.00000000 [kJ/mol]
      Disp20 (SS)                  -0.00089976 [mEh]      -0.00056461 [kcal/mol]      -0.00236232 [kJ/mol]
      Disp20 (OS)                  -0.00089976 [mEh]      -0.00056461 [kcal/mol]      -0.00236232 [kJ/mol]
      Exch-Disp20 (SS)              0.00000000 [mEh]       0.00000000 [kcal/mol]       0.00000000 [kJ/mol]
      Exch-Disp20 (OS)              0.00000000 [mEh]       0.00000000 [kcal/mol]       0.00000000 [kJ/mol]

  Total HF                          0.05491211 [mEh]       0.03445787 [kcal/mol]       0.14417173 [kJ/mol]
  Total SAPT0                       0.05311259 [mEh]       0.03332865 [kcal/mol]       0.13944709 [kJ/mol]

  Special recipe for scaled SAPT0 (see Manual):
    Electrostatics sSAPT0           0.05512402 [mEh]       0.03459084 [kcal/mol]       0.14472809 [kJ/mol]
    Exchange sSAPT0                 0.00000000 [mEh]       0.00000000 [kcal/mol]       0.00000000 [kJ/mol]
    Induction sSAPT0               -0.00021191 [mEh]      -0.00013297 [kcal/mol]      -0.00055636 [kJ/mol]
    Dispersion sSAPT0              -0.00179952 [mEh]      -0.00112922 [kcal/mol]      -0.00472464 [kJ/mol]
  Total sSAPT0                      0.05311259 [mEh]       0.03332865 [kcal/mol]       0.13944709 [kJ/mol]
  --------------------------------------------------------------------------------------------------------

*** Psi4 exiting successfully. Buy a developer a beer!
