                               Psi4 1.4rc3

  ==> Input File <==

--------------------------------------------------------------------------
# PSI4 file produced by CrystaLattE

# Generated from:               imidazole.xyz
# Psithon input for N-mer:      2mer-0+10
# Number of atoms per monomer:  [9, 9]
# Number of replicas:           1
# COM priority:                 2.226339575022e-03
# Minimum COM separations:      4.053
# Separation priority:          3.717661123542e-03
# Minimum monomer separations:  3.416
# Cutoff priority:              5.759167811468e-04
# Nuclear repulsion energy:     488.0712174567718

memory 7 GB

molecule Dimer_0_10 {
  N           -4.29309621      -3.06837431       5.30516231
  N           -2.15847371      -2.92627296       1.72037448
  H           -0.02545587      -6.35903575       2.22046452
  H           -2.68566968      -6.53260241       6.61445954
  H           -4.74388423      -0.00609006       2.75615968
  H           -1.41045540      -2.24723147       0.00000000
  C           -1.43737991      -5.07504848       2.94065891
  C           -2.76900782      -5.14609916       5.13522880
  C           -3.85955036      -1.77728198       3.21093411
--
  N           -4.72980061      -6.17836402      -4.69340168
  N           -6.86442311      -6.32046538      -1.10861384
  H           -8.99744096      -2.88770259      -1.60870389
  H           -6.33722715      -2.71413593      -6.00269891
  H           -4.27901260      -9.24064828      -2.14439904
  H           -7.61244142      -6.99950687       0.61176063
  C           -7.58551691      -4.17168985      -2.32889828
  C           -6.25388901      -4.10063917      -4.52346817
  C           -5.16334647      -7.46945636      -2.59917348
units = au
no_com
no_reorient
}

set {
  e_convergence 10
  d_convergence 10
  scf_type df
  mp2_type df
  cc_type df
  freeze_core true
}

energy('sapt0/aug-cc-pvdz')

--------------------------------------------------------------------------

  //              Dimer HF             //
    Molecular point group: c1
  Charge       = 0
  Multiplicity = 1
  Basis Set: AUG-CC-PVDZ
    Blend: AUG-CC-PVDZ
  Basis Set: (AUG-CC-PVDZ AUX)
    Blend: AUG-CC-PVDZ-JKFIT
  @DF-RHF Final Energy:  -449.69151904505497
    Total Energy =                       -449.6915190450549744
  //            Monomer A HF           //
    Molecular point group: c1
  Multiplicity = 1
  Basis Set: AUG-CC-PVDZ
    Blend: AUG-CC-PVDZ
  Basis Set: (AUG-CC-PVDZ AUX)
    Blend: AUG-CC-PVDZ-JKFIT
  @DF-RHF Final Energy:  -224.84413360272842
    Total Energy =                       -224.8441336027284194
  //            Monomer B HF           //
    Molecular point group: c1

    Geometry (in Bohr), charge = 0, multiplicity = 1:

       Center              X                  Y                   Z               Mass
    ------------   -----------------  -----------------  -----------------  -----------------
      Gh(N)          -4.293096210000    -3.068374310000     5.305162310000    14.003074004430
      Gh(N)          -2.158473710000    -2.926272960000     1.720374480000    14.003074004430
      Gh(H)          -0.025455870000    -6.359035750000     2.220464520000     1.007825032230
      Gh(H)          -2.685669680000    -6.532602410000     6.614459540000     1.007825032230
      Gh(H)          -4.743884230000    -0.006090060000     2.756159680000     1.007825032230
      Gh(H)          -1.410455400000    -2.247231470000     0.000000000000     1.007825032230
      Gh(C)          -1.437379910000    -5.075048480000     2.940658910000    12.000000000000
      Gh(C)          -2.769007820000    -5.146099160000     5.135228800000    12.000000000000
      Gh(C)          -3.859550360000    -1.777281980000     3.210934110000    12.000000000000
         N           -4.729800610000    -6.178364020000    -4.693401680000    14.003074004430
         N           -6.864423110000    -6.320465380000    -1.108613840000    14.003074004430
         H           -8.997440960000    -2.887702590000    -1.608703890000     1.007825032230
         H           -6.337227150000    -2.714135930000    -6.002698910000     1.007825032230
         H           -4.279012600000    -9.240648280000    -2.144399040000     1.007825032230
         H           -7.612441420000    -6.999506870000     0.611760630000     1.007825032230
         C           -7.585516910000    -4.171689850000    -2.328898280000    12.000000000000
         C           -6.253889010000    -4.100639170000    -4.523468170000    12.000000000000
         C           -5.163346470000    -7.469456360000    -2.599173480000    12.000000000000

  Charge       = 0
  Multiplicity = 1
  Basis Set: AUG-CC-PVDZ
    Blend: AUG-CC-PVDZ
  Basis Set: (AUG-CC-PVDZ AUX)
    Blend: AUG-CC-PVDZ-JKFIT

    Orbital Energies [Eh]
    ---------------------

    Doubly Occupied:

       1A    -15.637098     2A    -15.551221     3A    -11.300878
       4A    -11.263181     5A    -11.245627     6A     -1.352789
       7A     -1.169020     8A     -1.012020     9A     -0.824318
      10A     -0.803650    11A     -0.760593    12A     -0.610027
      13A     -0.603958    14A     -0.601845    15A     -0.570888
      16A     -0.435429    17A     -0.400419    18A     -0.320649

  @DF-RHF Final Energy:  -224.84413360313113

   => Energetics <=

    Nuclear Repulsion Energy =            164.0866957986765442
    One-Electron Energy =                -628.9344434106855033
    Two-Electron Energy =                 240.0036140088778325
    Total Energy =                       -224.8441336031311266

  Dipole Moment: [D]
     X:    -2.0402      Y:    -0.4141      Z:     3.3841     Total:     3.9731

    SAPT Results
  --------------------------------------------------------------------------------------------------------
    Electrostatics                 -5.94395342 [mEh]      -3.72988708 [kcal/mol]     -15.60584755 [kJ/mol]
      Elst10,r                     -5.94395342 [mEh]      -3.72988708 [kcal/mol]     -15.60584755 [kJ/mol]

    Exchange                        3.62021626 [mEh]       2.27172000 [kcal/mol]       9.50487648 [kJ/mol]
      Exch10                        3.62021626 [mEh]       2.27172000 [kcal/mol]       9.50487648 [kJ/mol]
      Exch10(S^2)                   3.61804923 [mEh]       2.27036017 [kcal/mol]       9.49918695 [kJ/mol]

    Induction                      -0.92810204 [mEh]      -0.58239282 [kcal/mol]      -2.43673156 [kJ/mol]
      Ind20,r                      -1.81126998 [mEh]      -1.13658907 [kcal/mol]      -4.75548869 [kJ/mol]
      Exch-Ind20,r                  1.19330919 [mEh]       0.74881282 [kcal/mol]       3.13303284 [kJ/mol]
      delta HF,r (2)               -0.31014124 [mEh]      -0.19461657 [kcal/mol]      -0.81427572 [kJ/mol]

    Dispersion                     -6.54680161 [mEh]      -4.10818003 [kcal/mol]     -17.18862525 [kJ/mol]
      Disp20                       -7.16007021 [mEh]      -4.49301189 [kcal/mol]     -18.79876176 [kJ/mol]
      Exch-Disp20                   0.61326861 [mEh]       0.38483186 [kcal/mol]       1.61013651 [kJ/mol]
      Disp20 (SS)                  -3.58003511 [mEh]      -2.24650595 [kcal/mol]      -9.39938088 [kJ/mol]
      Disp20 (OS)                  -3.58003511 [mEh]      -2.24650595 [kcal/mol]      -9.39938088 [kJ/mol]
      Exch-Disp20 (SS)              0.39369763 [mEh]       0.24704899 [kcal/mol]       1.03365299 [kJ/mol]
      Exch-Disp20 (OS)              0.21957098 [mEh]       0.13778287 [kcal/mol]       0.57648352 [kJ/mol]

  Total HF                         -3.25183920 [mEh]      -2.04055990 [kcal/mol]      -8.53770263 [kJ/mol]
  Total SAPT0                      -9.79864080 [mEh]      -6.14873993 [kcal/mol]     -25.72632788 [kJ/mol]

  Special recipe for scaled SAPT0 (see Manual):
    Electrostatics sSAPT0          -5.94395342 [mEh]      -3.72988708 [kcal/mol]     -15.60584755 [kJ/mol]
    Exchange sSAPT0                 3.62021626 [mEh]       2.27172000 [kcal/mol]       9.50487648 [kJ/mol]
    Induction sSAPT0               -0.92595656 [mEh]      -0.58104651 [kcal/mol]      -2.43109861 [kJ/mol]
    Dispersion sSAPT0              -6.54569899 [mEh]      -4.10748813 [kcal/mol]     -17.18573034 [kJ/mol]
  Total sSAPT0                     -9.79539271 [mEh]      -6.14670173 [kcal/mol]     -25.71780002 [kJ/mol]
  --------------------------------------------------------------------------------------------------------

*** Psi4 exiting successfully. Buy a developer a beer!
