                               Psi4 1.4rc3

  ==> Input File <==

--------------------------------------------------------------------------
# PSI4 file produced by CrystaLattE

# Generated from:               imidazole.xyz
# Psithon input for N-mer:      2mer-0+462
# Number of atoms per monomer:  [9, 9]
# Number of replicas:           1
# COM priority:                 2.369196699225e-05
# Minimum COM separations:      18.425
# Separation priority:          2.660010513538e-05
# Minimum monomer separations:  17.727
# Cutoff priority:              7.940438215908e-07
# Nuclear repulsion energy:     365.19804308529206

memory 7 GB

molecule Dimer_0_462 {
  N           -4.29309621      -3.06837431       5.30516231
  N           -2.15847371      -2.92627296       1.72037448
  H           -0.02545587      -6.35903575       2.22046452
  H           -2.68566968      -6.53260241       6.61445954
  H           -4.74388423      -0.00609006       2.75615968
  H           -1.41045540      -2.24723147       0.00000000
  C           -1.43737991      -5.07504848       2.94065891
  C           -2.76900782      -5.14609916       5.13522880
  C           -3.85955036      -1.77728198       3.21093411
--
  N          -33.38636347     -16.32846099      -4.69340168
  N          -35.52098597     -16.47056235      -1.10861384
  H          -37.65400382     -13.03779955      -1.60870389
  H          -34.99379000     -12.86423289      -6.00269891
  H          -32.93557546     -19.39074524      -2.14439904
  H          -36.26900428     -17.14960383       0.61176063
  C          -36.24207977     -14.32178682      -2.32889828
  C          -34.91045186     -14.25073614      -4.52346817
  C          -33.81990933     -17.61955332      -2.59917348
units = au
no_com
no_reorient
}

set {
  e_convergence 10
  d_convergence 10
  scf_type df
  mp2_type df
  cc_type df
  freeze_core true
}

energy('sapt0/aug-cc-pvdz')

--------------------------------------------------------------------------

  //              Dimer HF             //
    Molecular point group: c1
  Charge       = 0
  Multiplicity = 1
  Basis Set: AUG-CC-PVDZ
    Blend: AUG-CC-PVDZ
  Basis Set: (AUG-CC-PVDZ AUX)
    Blend: AUG-CC-PVDZ-JKFIT
  @DF-RHF Final Energy:  -449.68741403887168
    Total Energy =                       -449.6874140388716796
  //            Monomer A HF           //
    Molecular point group: c1
  Multiplicity = 1
  Basis Set: AUG-CC-PVDZ
    Blend: AUG-CC-PVDZ
  Basis Set: (AUG-CC-PVDZ AUX)
    Blend: AUG-CC-PVDZ-JKFIT
  @DF-RHF Final Energy:  -224.84369627884757
    Total Energy =                       -224.8436962788475739
  //            Monomer B HF           //
    Molecular point group: c1

    Geometry (in Bohr), charge = 0, multiplicity = 1:

       Center              X                  Y                   Z               Mass
    ------------   -----------------  -----------------  -----------------  -----------------
      Gh(N)          -4.293096210000    -3.068374310000     5.305162310000    14.003074004430
      Gh(N)          -2.158473710000    -2.926272960000     1.720374480000    14.003074004430
      Gh(H)          -0.025455870000    -6.359035750000     2.220464520000     1.007825032230
      Gh(H)          -2.685669680000    -6.532602410000     6.614459540000     1.007825032230
      Gh(H)          -4.743884230000    -0.006090060000     2.756159680000     1.007825032230
      Gh(H)          -1.410455400000    -2.247231470000     0.000000000000     1.007825032230
      Gh(C)          -1.437379910000    -5.075048480000     2.940658910000    12.000000000000
      Gh(C)          -2.769007820000    -5.146099160000     5.135228800000    12.000000000000
      Gh(C)          -3.859550360000    -1.777281980000     3.210934110000    12.000000000000
         N          -33.386363470000   -16.328460990000    -4.693401680000    14.003074004430
         N          -35.520985970000   -16.470562350000    -1.108613840000    14.003074004430
         H          -37.654003820000   -13.037799550000    -1.608703890000     1.007825032230
         H          -34.993790000000   -12.864232890000    -6.002698910000     1.007825032230
         H          -32.935575460000   -19.390745240000    -2.144399040000     1.007825032230
         H          -36.269004280000   -17.149603830000     0.611760630000     1.007825032230
         C          -36.242079770000   -14.321786820000    -2.328898280000    12.000000000000
         C          -34.910451860000   -14.250736140000    -4.523468170000    12.000000000000
         C          -33.819909330000   -17.619553320000    -2.599173480000    12.000000000000

  Charge       = 0
  Multiplicity = 1
  Basis Set: AUG-CC-PVDZ
    Blend: AUG-CC-PVDZ
  Basis Set: (AUG-CC-PVDZ AUX)
    Blend: AUG-CC-PVDZ-JKFIT

    Orbital Energies [Eh]
    ---------------------

    Doubly Occupied:

       1A    -15.637071     2A    -15.551216     3A    -11.300916
       4A    -11.263160     5A    -11.245653     6A     -1.352867
       7A     -1.169098     8A     -1.012098     9A     -0.824390
      10A     -0.803731    11A     -0.760666    12A     -0.610096
      13A     -0.603958    14A     -0.601922    15A     -0.570942
      16A     -0.435483    17A     -0.400464    18A     -0.320685

  @DF-RHF Final Energy:  -224.84369627899727

   => Energetics <=

    Nuclear Repulsion Energy =            164.0866958967185667
    One-Electron Energy =                -628.9319561052296876
    Two-Electron Energy =                 240.0015639295138783
    Total Energy =                       -224.8436962789972711

  Dipole Moment: [D]
     X:    -2.0431      Y:    -0.4150      Z:     3.3867     Total:     3.9769

    SAPT Results
  --------------------------------------------------------------------------------------------------------
    Electrostatics                 -0.02140492 [mEh]      -0.01343179 [kcal/mol]      -0.05619860 [kJ/mol]
      Elst10,r                     -0.02140492 [mEh]      -0.01343179 [kcal/mol]      -0.05619860 [kJ/mol]

    Exchange                        0.00000000 [mEh]       0.00000000 [kcal/mol]       0.00000000 [kJ/mol]
      Exch10                        0.00000000 [mEh]       0.00000000 [kcal/mol]       0.00000000 [kJ/mol]
      Exch10(S^2)                   0.00000000 [mEh]       0.00000000 [kcal/mol]       0.00000000 [kJ/mol]

    Induction                      -0.00007611 [mEh]      -0.00004776 [kcal/mol]      -0.00019983 [kJ/mol]
      Ind20,r                      -0.00008098 [mEh]      -0.00005081 [kcal/mol]      -0.00021260 [kJ/mol]
      Exch-Ind20,r                  0.00000000 [mEh]       0.00000000 [kcal/mol]       0.00000000 [kJ/mol]
      delta HF,r (2)                0.00000487 [mEh]       0.00000305 [kcal/mol]       0.00001278 [kJ/mol]

    Dispersion                     -0.00057754 [mEh]      -0.00036241 [kcal/mol]      -0.00151633 [kJ/mol]
      Disp20                       -0.00057754 [mEh]      -0.00036241 [kcal/mol]      -0.00151633 [kJ/mol]
      Exch-Disp20                   0.00000000 [mEh]       0.00000000 [kcal/mol]       0.00000000 [kJ/mol]
      Disp20 (SS)                  -0.00028877 [mEh]      -0.00018121 [kcal/mol]      -0.00075817 [kJ/mol]
      Disp20 (OS)                  -0.00028877 [mEh]      -0.00018121 [kcal/mol]      -0.00075817 [kJ/mol]
      Exch-Disp20 (SS)              0.00000000 [mEh]       0.00000000 [kcal/mol]       0.00000000 [kJ/mol]
      Exch-Disp20 (OS)              0.00000000 [mEh]       0.00000000 [kcal/mol]       0.00000000 [kJ/mol]

  Total HF                         -0.02148103 [mEh]      -0.01347955 [kcal/mol]      -0.05639843 [kJ/mol]
  Total SAPT0                      -0.02205857 [mEh]      -0.01384196 [kcal/mol]      -0.05791476 [kJ/mol]

  Special recipe for scaled SAPT0 (see Manual):
    Electrostatics sSAPT0          -0.02140492 [mEh]      -0.01343179 [kcal/mol]      -0.05619860 [kJ/mol]
    Exchange sSAPT0                 0.00000000 [mEh]       0.00000000 [kcal/mol]       0.00000000 [kJ/mol]
    Induction sSAPT0               -0.00007611 [mEh]      -0.00004776 [kcal/mol]      -0.00019983 [kJ/mol]
    Dispersion sSAPT0              -0.00057754 [mEh]      -0.00036241 [kcal/mol]      -0.00151633 [kJ/mol]
  Total sSAPT0                     -0.02205857 [mEh]      -0.01384196 [kcal/mol]      -0.05791476 [kJ/mol]
  --------------------------------------------------------------------------------------------------------

*** Psi4 exiting successfully. Buy a developer a beer!
