                               Psi4 1.4rc3

  ==> Input File <==

--------------------------------------------------------------------------
# PSI4 file produced by CrystaLattE

# Generated from:               imidazole.xyz
# Psithon input for N-mer:      2mer-0+50
# Number of atoms per monomer:  [9, 9]
# Number of replicas:           1
# COM priority:                 2.588487290517e-04
# Minimum COM separations:      8.303
# Separation priority:          2.402648316244e-03
# Minimum monomer separations:  3.951
# Cutoff priority:              3.218006683397e-04
# Nuclear repulsion energy:     411.8780783917151

memory 7 GB

molecule Dimer_0_50 {
  N           -4.29309621      -3.06837431       5.30516231
  N           -2.15847371      -2.92627296       1.72037448
  H           -0.02545587      -6.35903575       2.22046452
  H           -2.68566968      -6.53260241       6.61445954
  H           -4.74388423      -0.00609006       2.75615968
  H           -1.41045540      -2.24723147       0.00000000
  C           -1.43737991      -5.07504848       2.94065891
  C           -2.76900782      -5.14609916       5.13522880
  C           -3.85955036      -1.77728198       3.21093411
--
  N            0.63410893     -16.32846099      11.49074204
  N           -1.50051357     -16.47056235      15.07552988
  H           -3.63353142     -13.03779955      14.57543984
  H           -0.97331761     -12.86423289      10.18144482
  H            1.08489694     -19.39074524      14.03974468
  H           -2.24853188     -17.14960383      16.79590435
  C           -2.22160737     -14.32178682      13.85524544
  C           -0.88997947     -14.25073614      11.66067555
  C            0.20056307     -17.61955332      13.58497024
units = au
no_com
no_reorient
}

set {
  e_convergence 10
  d_convergence 10
  scf_type df
  mp2_type df
  cc_type df
  freeze_core true
}

energy('sapt0/aug-cc-pvdz')

--------------------------------------------------------------------------

  //              Dimer HF             //
    Molecular point group: c1
  Charge       = 0
  Multiplicity = 1
  Basis Set: AUG-CC-PVDZ
    Blend: AUG-CC-PVDZ
  Basis Set: (AUG-CC-PVDZ AUX)
    Blend: AUG-CC-PVDZ-JKFIT
  @DF-RHF Final Energy:  -449.68769178152309
    Total Energy =                       -449.6876917815230854
  //            Monomer A HF           //
    Molecular point group: c1
  Multiplicity = 1
  Basis Set: AUG-CC-PVDZ
    Blend: AUG-CC-PVDZ
  Basis Set: (AUG-CC-PVDZ AUX)
    Blend: AUG-CC-PVDZ-JKFIT
  @DF-RHF Final Energy:  -224.84374119934168
    Total Energy =                       -224.8437411993416788
  //            Monomer B HF           //
    Molecular point group: c1

    Geometry (in Bohr), charge = 0, multiplicity = 1:

       Center              X                  Y                   Z               Mass
    ------------   -----------------  -----------------  -----------------  -----------------
      Gh(N)          -4.293096210000    -3.068374310000     5.305162310000    14.003074004430
      Gh(N)          -2.158473710000    -2.926272960000     1.720374480000    14.003074004430
      Gh(H)          -0.025455870000    -6.359035750000     2.220464520000     1.007825032230
      Gh(H)          -2.685669680000    -6.532602410000     6.614459540000     1.007825032230
      Gh(H)          -4.743884230000    -0.006090060000     2.756159680000     1.007825032230
      Gh(H)          -1.410455400000    -2.247231470000     0.000000000000     1.007825032230
      Gh(C)          -1.437379910000    -5.075048480000     2.940658910000    12.000000000000
      Gh(C)          -2.769007820000    -5.146099160000     5.135228800000    12.000000000000
      Gh(C)          -3.859550360000    -1.777281980000     3.210934110000    12.000000000000
         N            0.634108930000   -16.328460990000    11.490742040000    14.003074004430
         N           -1.500513570000   -16.470562350000    15.075529880000    14.003074004430
         H           -3.633531420000   -13.037799550000    14.575439840000     1.007825032230
         H           -0.973317610000   -12.864232890000    10.181444820000     1.007825032230
         H            1.084896940000   -19.390745240000    14.039744680000     1.007825032230
         H           -2.248531880000   -17.149603830000    16.795904350000     1.007825032230
         C           -2.221607370000   -14.321786820000    13.855245440000    12.000000000000
         C           -0.889979470000   -14.250736140000    11.660675550000    12.000000000000
         C            0.200563070000   -17.619553320000    13.584970240000    12.000000000000

  Charge       = 0
  Multiplicity = 1
  Basis Set: AUG-CC-PVDZ
    Blend: AUG-CC-PVDZ
  Basis Set: (AUG-CC-PVDZ AUX)
    Blend: AUG-CC-PVDZ-JKFIT

    Orbital Energies [Eh]
    ---------------------

    Doubly Occupied:

       1A    -15.637074     2A    -15.551214     3A    -11.300907
       4A    -11.263154     5A    -11.245628     6A     -1.352867
       7A     -1.169099     8A     -1.012100     9A     -0.824389
      10A     -0.803731    11A     -0.760670    12A     -0.610097
      13A     -0.603958    14A     -0.601926    15A     -0.570945
      16A     -0.435483    17A     -0.400465    18A     -0.320686

  @DF-RHF Final Energy:  -224.84374120009952

   => Energetics <=

    Nuclear Repulsion Energy =            164.0866958967881430
    One-Electron Energy =                -628.9320923605322378
    Two-Electron Energy =                 240.0016552636446079
    Total Energy =                       -224.8437412000995153

  Dipole Moment: [D]
     X:    -2.0434      Y:    -0.4149      Z:     3.3870     Total:     3.9773

    SAPT Results
  --------------------------------------------------------------------------------------------------------
    Electrostatics                 -0.20498939 [mEh]      -0.12863279 [kcal/mol]      -0.53819957 [kJ/mol]
      Elst10,r                     -0.20498939 [mEh]      -0.12863279 [kcal/mol]      -0.53819957 [kJ/mol]

    Exchange                        0.00185481 [mEh]       0.00116391 [kcal/mol]       0.00486979 [kJ/mol]
      Exch10                        0.00185481 [mEh]       0.00116391 [kcal/mol]       0.00486979 [kJ/mol]
      Exch10(S^2)                   0.00185480 [mEh]       0.00116391 [kcal/mol]       0.00486978 [kJ/mol]

    Induction                      -0.00624750 [mEh]      -0.00392036 [kcal/mol]      -0.01640280 [kJ/mol]
      Ind20,r                      -0.00661619 [mEh]      -0.00415172 [kcal/mol]      -0.01737081 [kJ/mol]
      Exch-Ind20,r                  0.00014386 [mEh]       0.00009027 [kcal/mol]       0.00037769 [kJ/mol]
      delta HF,r (2)                0.00022484 [mEh]       0.00014109 [kcal/mol]       0.00059031 [kJ/mol]

    Dispersion                     -0.18558545 [mEh]      -0.11645663 [kcal/mol]      -0.48725454 [kJ/mol]
      Disp20                       -0.18586401 [mEh]      -0.11663143 [kcal/mol]      -0.48798590 [kJ/mol]
      Exch-Disp20                   0.00027856 [mEh]       0.00017480 [kcal/mol]       0.00073136 [kJ/mol]
      Disp20 (SS)                  -0.09293201 [mEh]      -0.05831572 [kcal/mol]      -0.24399295 [kJ/mol]
      Disp20 (OS)                  -0.09293201 [mEh]      -0.05831572 [kcal/mol]      -0.24399295 [kJ/mol]
      Exch-Disp20 (SS)              0.00021674 [mEh]       0.00013601 [kcal/mol]       0.00056905 [kJ/mol]
      Exch-Disp20 (OS)              0.00006182 [mEh]       0.00003879 [kcal/mol]       0.00016231 [kJ/mol]

  Total HF                         -0.20938208 [mEh]      -0.13138924 [kcal/mol]      -0.54973258 [kJ/mol]
  Total SAPT0                      -0.39496754 [mEh]      -0.24784587 [kcal/mol]      -1.03698712 [kJ/mol]

  Special recipe for scaled SAPT0 (see Manual):
    Electrostatics sSAPT0          -0.20498939 [mEh]      -0.12863279 [kcal/mol]      -0.53819957 [kJ/mol]
    Exchange sSAPT0                 0.00185481 [mEh]       0.00116391 [kcal/mol]       0.00486979 [kJ/mol]
    Induction sSAPT0               -0.00624750 [mEh]      -0.00392036 [kcal/mol]      -0.01640280 [kJ/mol]
    Dispersion sSAPT0              -0.18558545 [mEh]      -0.11645663 [kcal/mol]      -0.48725454 [kJ/mol]
  Total sSAPT0                     -0.39496754 [mEh]      -0.24784587 [kcal/mol]      -1.03698712 [kJ/mol]
  --------------------------------------------------------------------------------------------------------

*** Psi4 exiting successfully. Buy a developer a beer!
