                               Psi4 1.4rc3

  ==> Input File <==

--------------------------------------------------------------------------
# PSI4 file produced by CrystaLattE

# Generated from:               imidazole.xyz
# Psithon input for N-mer:      2mer-0+501
# Number of atoms per monomer:  [9, 9]
# Number of replicas:           2
# COM priority:                 1.364409375320e-05
# Minimum COM separations:      22.146
# Separation priority:          2.242015070001e-05
# Minimum monomer separations:  18.767
# Cutoff priority:              6.321954559385e-07
# Nuclear repulsion energy:     359.114236498016

memory 7 GB

molecule Dimer_0_501 {
  N           -4.29309621      -3.06837431       5.30516231
  N           -2.15847371      -2.92627296       1.72037448
  H           -0.02545587      -6.35903575       2.22046452
  H           -2.68566968      -6.53260241       6.61445954
  H           -4.74388423      -0.00609006       2.75615968
  H           -1.41045540      -2.24723147       0.00000000
  C           -1.43737991      -5.07504848       2.94065891
  C           -2.76900782      -5.14609916       5.13522880
  C           -3.85955036      -1.77728198       3.21093411
--
  N          -23.54026799      32.45696507       3.39867018
  N          -25.67489049      32.59906642       6.98345802
  H          -27.80790833      29.16630363       6.48336797
  H          -25.14769452      28.99273697       2.08937295
  H          -23.08947997      35.51924932       5.94767282
  H          -26.42290879      33.27810791       8.70383249
  C          -26.39598429      30.45029090       5.76317358
  C          -25.06435638      30.37924022       3.56860369
  C          -23.97381384      33.74805740       5.49289838
units = au
no_com
no_reorient
}

set {
  e_convergence 10
  d_convergence 10
  scf_type df
  mp2_type df
  cc_type df
  freeze_core true
}

energy('sapt0/aug-cc-pvdz')

--------------------------------------------------------------------------

  //              Dimer HF             //
    Molecular point group: c1
  Charge       = 0
  Multiplicity = 1
  Basis Set: AUG-CC-PVDZ
    Blend: AUG-CC-PVDZ
  Basis Set: (AUG-CC-PVDZ AUX)
    Blend: AUG-CC-PVDZ-JKFIT
  @DF-RHF Final Energy:  -449.68741918843739
    Total Energy =                       -449.6874191884373886
  //            Monomer A HF           //
    Molecular point group: c1
  Multiplicity = 1
  Basis Set: AUG-CC-PVDZ
    Blend: AUG-CC-PVDZ
  Basis Set: (AUG-CC-PVDZ AUX)
    Blend: AUG-CC-PVDZ-JKFIT
  @DF-RHF Final Energy:  -224.84369627770087
    Total Energy =                       -224.8436962777008716
  //            Monomer B HF           //
    Molecular point group: c1

    Geometry (in Bohr), charge = 0, multiplicity = 1:

       Center              X                  Y                   Z               Mass
    ------------   -----------------  -----------------  -----------------  -----------------
      Gh(N)          -4.293096210000    -3.068374310000     5.305162310000    14.003074004430
      Gh(N)          -2.158473710000    -2.926272960000     1.720374480000    14.003074004430
      Gh(H)          -0.025455870000    -6.359035750000     2.220464520000     1.007825032230
      Gh(H)          -2.685669680000    -6.532602410000     6.614459540000     1.007825032230
      Gh(H)          -4.743884230000    -0.006090060000     2.756159680000     1.007825032230
      Gh(H)          -1.410455400000    -2.247231470000     0.000000000000     1.007825032230
      Gh(C)          -1.437379910000    -5.075048480000     2.940658910000    12.000000000000
      Gh(C)          -2.769007820000    -5.146099160000     5.135228800000    12.000000000000
      Gh(C)          -3.859550360000    -1.777281980000     3.210934110000    12.000000000000
         N          -23.540267990000    32.456965070000     3.398670180000    14.003074004430
         N          -25.674890490000    32.599066420000     6.983458020000    14.003074004430
         H          -27.807908330000    29.166303630000     6.483367970000     1.007825032230
         H          -25.147694520000    28.992736970000     2.089372950000     1.007825032230
         H          -23.089479970000    35.519249320000     5.947672820000     1.007825032230
         H          -26.422908790000    33.278107910000     8.703832490000     1.007825032230
         C          -26.395984290000    30.450290900000     5.763173580000    12.000000000000
         C          -25.064356380000    30.379240220000     3.568603690000    12.000000000000
         C          -23.973813840000    33.748057400000     5.492898380000    12.000000000000

  Charge       = 0
  Multiplicity = 1
  Basis Set: AUG-CC-PVDZ
    Blend: AUG-CC-PVDZ
  Basis Set: (AUG-CC-PVDZ AUX)
    Blend: AUG-CC-PVDZ-JKFIT

    Orbital Energies [Eh]
    ---------------------

    Doubly Occupied:

       1A    -15.637071     2A    -15.551216     3A    -11.300916
       4A    -11.263160     5A    -11.245653     6A     -1.352867
       7A     -1.169098     8A     -1.012098     9A     -0.824390
      10A     -0.803731    11A     -0.760666    12A     -0.610096
      13A     -0.603958    14A     -0.601922    15A     -0.570942
      16A     -0.435483    17A     -0.400464    18A     -0.320685

  @DF-RHF Final Energy:  -224.84369627844325

   => Energetics <=

    Nuclear Repulsion Energy =            164.0866958979480046
    One-Electron Energy =                -628.9319561053094958
    Two-Electron Energy =                 240.0015639289182445
    Total Energy =                       -224.8436962784432467

  Dipole Moment: [D]
     X:    -2.0431      Y:     0.4150      Z:     3.3867     Total:     3.9769

    SAPT Results
  --------------------------------------------------------------------------------------------------------
    Electrostatics                 -0.02660196 [mEh]      -0.01669298 [kcal/mol]      -0.06984344 [kJ/mol]
      Elst10,r                     -0.02660196 [mEh]      -0.01669298 [kcal/mol]      -0.06984344 [kJ/mol]

    Exchange                        0.00000000 [mEh]       0.00000000 [kcal/mol]       0.00000000 [kJ/mol]
      Exch10                        0.00000000 [mEh]       0.00000000 [kcal/mol]       0.00000000 [kJ/mol]
      Exch10(S^2)                   0.00000000 [mEh]       0.00000000 [kcal/mol]       0.00000000 [kJ/mol]

    Induction                      -0.00003033 [mEh]      -0.00001903 [kcal/mol]      -0.00007964 [kJ/mol]
      Ind20,r                      -0.00003201 [mEh]      -0.00002009 [kcal/mol]      -0.00008405 [kJ/mol]
      Exch-Ind20,r                  0.00000000 [mEh]       0.00000000 [kcal/mol]       0.00000000 [kJ/mol]
      delta HF,r (2)                0.00000168 [mEh]       0.00000105 [kcal/mol]       0.00000441 [kJ/mol]

    Dispersion                     -0.00023588 [mEh]      -0.00014802 [kcal/mol]      -0.00061930 [kJ/mol]
      Disp20                       -0.00023588 [mEh]      -0.00014802 [kcal/mol]      -0.00061930 [kJ/mol]
      Exch-Disp20                   0.00000000 [mEh]       0.00000000 [kcal/mol]       0.00000000 [kJ/mol]
      Disp20 (SS)                  -0.00011794 [mEh]      -0.00007401 [kcal/mol]      -0.00030965 [kJ/mol]
      Disp20 (OS)                  -0.00011794 [mEh]      -0.00007401 [kcal/mol]      -0.00030965 [kJ/mol]
      Exch-Disp20 (SS)              0.00000000 [mEh]       0.00000000 [kcal/mol]       0.00000000 [kJ/mol]
      Exch-Disp20 (OS)              0.00000000 [mEh]       0.00000000 [kcal/mol]       0.00000000 [kJ/mol]

  Total HF                         -0.02663229 [mEh]      -0.01671202 [kcal/mol]      -0.06992308 [kJ/mol]
  Total SAPT0                      -0.02686817 [mEh]      -0.01686003 [kcal/mol]      -0.07054238 [kJ/mol]

  Special recipe for scaled SAPT0 (see Manual):
    Electrostatics sSAPT0          -0.02660196 [mEh]      -0.01669298 [kcal/mol]      -0.06984344 [kJ/mol]
    Exchange sSAPT0                 0.00000000 [mEh]       0.00000000 [kcal/mol]       0.00000000 [kJ/mol]
    Induction sSAPT0               -0.00003033 [mEh]      -0.00001903 [kcal/mol]      -0.00007964 [kJ/mol]
    Dispersion sSAPT0              -0.00023588 [mEh]      -0.00014802 [kcal/mol]      -0.00061930 [kJ/mol]
  Total sSAPT0                     -0.02686817 [mEh]      -0.01686003 [kcal/mol]      -0.07054238 [kJ/mol]
  --------------------------------------------------------------------------------------------------------

*** Psi4 exiting successfully. Buy a developer a beer!
