                               Psi4 1.4rc3

  ==> Input File <==

--------------------------------------------------------------------------
# PSI4 file produced by CrystaLattE

# Generated from:               imidazole.xyz
# Psithon input for N-mer:      2mer-0+114
# Number of atoms per monomer:  [9, 9]
# Number of replicas:           1
# COM priority:                 3.232278361772e-05
# Minimum COM separations:      16.612
# Separation priority:          7.471319727610e-05
# Minimum monomer separations:  12.564
# Cutoff priority:              3.146756196016e-06
# Nuclear repulsion energy:     369.6893861601028

memory 7 GB

molecule Dimer_0_114 {
  N           -4.29309621      -3.06837431       5.30516231
  N           -2.15847371      -2.92627296       1.72037448
  H           -0.02545587      -6.35903575       2.22046452
  H           -2.68566968      -6.53260241       6.61445954
  H           -4.74388423      -0.00609006       2.75615968
  H           -1.41045540      -2.24723147       0.00000000
  C           -1.43737991      -5.07504848       2.94065891
  C           -2.76900782      -5.14609916       5.13522880
  C           -3.85955036      -1.77728198       3.21093411
--
  N           18.56285270       3.97173294     -20.87754540
  N           16.42823020       3.82963158     -17.29275757
  H           14.29521236       7.26239438     -17.79284761
  H           16.95542617       7.43596104     -22.18684263
  H           19.01364072       0.90944869     -18.32854276
  H           15.68021189       3.15059010     -15.57238309
  C           15.70713640       5.97840711     -18.51304200
  C           17.03876431       6.04945779     -20.70761189
  C           18.12930685       2.68064061     -18.78331720
units = au
no_com
no_reorient
}

set {
  e_convergence 10
  d_convergence 10
  scf_type df
  mp2_type df
  cc_type df
  freeze_core true
}

energy('sapt0/aug-cc-pvdz')

--------------------------------------------------------------------------

  //              Dimer HF             //
    Molecular point group: c1
  Charge       = 0
  Multiplicity = 1
  Basis Set: AUG-CC-PVDZ
    Blend: AUG-CC-PVDZ
  Basis Set: (AUG-CC-PVDZ AUX)
    Blend: AUG-CC-PVDZ-JKFIT
  @DF-RHF Final Energy:  -449.68723291265871
    Total Energy =                       -449.6872329126587147
  //            Monomer A HF           //
    Molecular point group: c1
  Multiplicity = 1
  Basis Set: AUG-CC-PVDZ
    Blend: AUG-CC-PVDZ
  Basis Set: (AUG-CC-PVDZ AUX)
    Blend: AUG-CC-PVDZ-JKFIT
  @DF-RHF Final Energy:  -224.84369627903305
    Total Energy =                       -224.8436962790330540
  //            Monomer B HF           //
    Molecular point group: c1

    Geometry (in Bohr), charge = 0, multiplicity = 1:

       Center              X                  Y                   Z               Mass
    ------------   -----------------  -----------------  -----------------  -----------------
      Gh(N)          -4.293096210000    -3.068374310000     5.305162310000    14.003074004430
      Gh(N)          -2.158473710000    -2.926272960000     1.720374480000    14.003074004430
      Gh(H)          -0.025455870000    -6.359035750000     2.220464520000     1.007825032230
      Gh(H)          -2.685669680000    -6.532602410000     6.614459540000     1.007825032230
      Gh(H)          -4.743884230000    -0.006090060000     2.756159680000     1.007825032230
      Gh(H)          -1.410455400000    -2.247231470000     0.000000000000     1.007825032230
      Gh(C)          -1.437379910000    -5.075048480000     2.940658910000    12.000000000000
      Gh(C)          -2.769007820000    -5.146099160000     5.135228800000    12.000000000000
      Gh(C)          -3.859550360000    -1.777281980000     3.210934110000    12.000000000000
         N           18.562852700000     3.971732940000   -20.877545400000    14.003074004430
         N           16.428230200000     3.829631580000   -17.292757570000    14.003074004430
         H           14.295212360000     7.262394380000   -17.792847610000     1.007825032230
         H           16.955426170000     7.435961040000   -22.186842630000     1.007825032230
         H           19.013640720000     0.909448690000   -18.328542760000     1.007825032230
         H           15.680211890000     3.150590100000   -15.572383090000     1.007825032230
         C           15.707136400000     5.978407110000   -18.513042000000    12.000000000000
         C           17.038764310000     6.049457790000   -20.707611890000    12.000000000000
         C           18.129306850000     2.680640610000   -18.783317200000    12.000000000000

  Charge       = 0
  Multiplicity = 1
  Basis Set: AUG-CC-PVDZ
    Blend: AUG-CC-PVDZ
  Basis Set: (AUG-CC-PVDZ AUX)
    Blend: AUG-CC-PVDZ-JKFIT

    Orbital Energies [Eh]
    ---------------------

    Doubly Occupied:

       1A    -15.637071     2A    -15.551216     3A    -11.300916
       4A    -11.263160     5A    -11.245653     6A     -1.352867
       7A     -1.169098     8A     -1.012098     9A     -0.824390
      10A     -0.803731    11A     -0.760666    12A     -0.610096
      13A     -0.603958    14A     -0.601922    15A     -0.570942
      16A     -0.435483    17A     -0.400464    18A     -0.320685

  @DF-RHF Final Energy:  -224.84369627933279

   => Energetics <=

    Nuclear Repulsion Energy =            164.0866959554952018
    One-Electron Energy =                -628.9319562316084102
    Two-Electron Energy =                 240.0015639967804191
    Total Energy =                       -224.8436962793327893

  Dipole Moment: [D]
     X:    -2.0431      Y:    -0.4150      Z:     3.3867     Total:     3.9769

    SAPT Results
  --------------------------------------------------------------------------------------------------------
    Electrostatics                  0.16020969 [mEh]       0.10053310 [kcal/mol]       0.42063047 [kJ/mol]
      Elst10,r                      0.16020969 [mEh]       0.10053310 [kcal/mol]       0.42063047 [kJ/mol]

    Exchange                        0.00000000 [mEh]       0.00000000 [kcal/mol]       0.00000000 [kJ/mol]
      Exch10                        0.00000000 [mEh]       0.00000000 [kcal/mol]       0.00000000 [kJ/mol]
      Exch10(S^2)                   0.00000000 [mEh]       0.00000000 [kcal/mol]       0.00000000 [kJ/mol]

    Induction                      -0.00056398 [mEh]      -0.00035390 [kcal/mol]      -0.00148073 [kJ/mol]
      Ind20,r                      -0.00058027 [mEh]      -0.00036413 [kcal/mol]      -0.00152351 [kJ/mol]
      Exch-Ind20,r                  0.00000000 [mEh]       0.00000000 [kcal/mol]       0.00000000 [kJ/mol]
      delta HF,r (2)                0.00001629 [mEh]       0.00001022 [kcal/mol]       0.00004278 [kJ/mol]

    Dispersion                     -0.00153992 [mEh]      -0.00096632 [kcal/mol]      -0.00404307 [kJ/mol]
      Disp20                       -0.00153992 [mEh]      -0.00096632 [kcal/mol]      -0.00404307 [kJ/mol]
      Exch-Disp20                   0.00000000 [mEh]       0.00000000 [kcal/mol]       0.00000000 [kJ/mol]
      Disp20 (SS)                  -0.00076996 [mEh]      -0.00048316 [kcal/mol]      -0.00202153 [kJ/mol]
      Disp20 (OS)                  -0.00076996 [mEh]      -0.00048316 [kcal/mol]      -0.00202153 [kJ/mol]
      Exch-Disp20 (SS)              0.00000000 [mEh]       0.00000000 [kcal/mol]       0.00000000 [kJ/mol]
      Exch-Disp20 (OS)              0.00000000 [mEh]       0.00000000 [kcal/mol]       0.00000000 [kJ/mol]

  Total HF                          0.15964571 [mEh]       0.10017919 [kcal/mol]       0.41914975 [kJ/mol]
  Total SAPT0                       0.15810578 [mEh]       0.09921288 [kcal/mol]       0.41510668 [kJ/mol]

  Special recipe for scaled SAPT0 (see Manual):
    Electrostatics sSAPT0           0.16020969 [mEh]       0.10053310 [kcal/mol]       0.42063047 [kJ/mol]
    Exchange sSAPT0                 0.00000000 [mEh]       0.00000000 [kcal/mol]       0.00000000 [kJ/mol]
    Induction sSAPT0               -0.00056398 [mEh]      -0.00035390 [kcal/mol]      -0.00148073 [kJ/mol]
    Dispersion sSAPT0              -0.00153992 [mEh]      -0.00096632 [kcal/mol]      -0.00404307 [kJ/mol]
  Total sSAPT0                      0.15810578 [mEh]       0.09921288 [kcal/mol]       0.41510668 [kJ/mol]
  --------------------------------------------------------------------------------------------------------

*** Psi4 exiting successfully. Buy a developer a beer!
