                               Psi4 1.4rc3

  ==> Input File <==

--------------------------------------------------------------------------
# PSI4 file produced by CrystaLattE

# Generated from:               imidazole.xyz
# Psithon input for N-mer:      2mer-0+45
# Number of atoms per monomer:  [9, 9]
# Number of replicas:           1
# COM priority:                 6.529255242950e-05
# Minimum COM separations:      13.142
# Separation priority:          2.142752664146e-04
# Minimum monomer separations:  8.843
# Cutoff priority:              1.282220526390e-05
# Nuclear repulsion energy:     380.8017472028059

memory 7 GB

molecule Dimer_0_45 {
  N           -4.29309621      -3.06837431       5.30516231
  N           -2.15847371      -2.92627296       1.72037448
  H           -0.02545587      -6.35903575       2.22046452
  H           -2.68566968      -6.53260241       6.61445954
  H           -4.74388423      -0.00609006       2.75615968
  H           -1.41045540      -2.24723147       0.00000000
  C           -1.43737991      -5.07504848       2.94065891
  C           -2.76900782      -5.14609916       5.13522880
  C           -3.85955036      -1.77728198       3.21093411
--
  N            4.23457127       3.97173294     -20.87754540
  N            2.09994877       3.82963158     -17.29275757
  H           -0.03306907       7.26239438     -17.79284761
  H            2.62714474       7.43596104     -22.18684263
  H            4.68535929       0.90944869     -18.32854276
  H            1.35193047       3.15059010     -15.57238309
  C            1.37885497       5.97840711     -18.51304200
  C            2.71048288       6.04945779     -20.70761189
  C            3.80102542       2.68064061     -18.78331720
units = au
no_com
no_reorient
}

set {
  e_convergence 10
  d_convergence 10
  scf_type df
  mp2_type df
  cc_type df
  freeze_core true
}

energy('sapt0/aug-cc-pvdz')

--------------------------------------------------------------------------

  //              Dimer HF             //
    Molecular point group: c1
  Charge       = 0
  Multiplicity = 1
  Basis Set: AUG-CC-PVDZ
    Blend: AUG-CC-PVDZ
  Basis Set: (AUG-CC-PVDZ AUX)
    Blend: AUG-CC-PVDZ-JKFIT
  @DF-RHF Final Energy:  -449.68701596152363
    Total Energy =                       -449.6870159615236844
  //            Monomer A HF           //
    Molecular point group: c1
  Multiplicity = 1
  Basis Set: AUG-CC-PVDZ
    Blend: AUG-CC-PVDZ
  Basis Set: (AUG-CC-PVDZ AUX)
    Blend: AUG-CC-PVDZ-JKFIT
  @DF-RHF Final Energy:  -224.84369688665120
    Total Energy =                       -224.8436968866512018
  //            Monomer B HF           //
    Molecular point group: c1

    Geometry (in Bohr), charge = 0, multiplicity = 1:

       Center              X                  Y                   Z               Mass
    ------------   -----------------  -----------------  -----------------  -----------------
      Gh(N)          -4.293096210000    -3.068374310000     5.305162310000    14.003074004430
      Gh(N)          -2.158473710000    -2.926272960000     1.720374480000    14.003074004430
      Gh(H)          -0.025455870000    -6.359035750000     2.220464520000     1.007825032230
      Gh(H)          -2.685669680000    -6.532602410000     6.614459540000     1.007825032230
      Gh(H)          -4.743884230000    -0.006090060000     2.756159680000     1.007825032230
      Gh(H)          -1.410455400000    -2.247231470000     0.000000000000     1.007825032230
      Gh(C)          -1.437379910000    -5.075048480000     2.940658910000    12.000000000000
      Gh(C)          -2.769007820000    -5.146099160000     5.135228800000    12.000000000000
      Gh(C)          -3.859550360000    -1.777281980000     3.210934110000    12.000000000000
         N            4.234571270000     3.971732940000   -20.877545400000    14.003074004430
         N            2.099948770000     3.829631580000   -17.292757570000    14.003074004430
         H           -0.033069070000     7.262394380000   -17.792847610000     1.007825032230
         H            2.627144740000     7.435961040000   -22.186842630000     1.007825032230
         H            4.685359290000     0.909448690000   -18.328542760000     1.007825032230
         H            1.351930470000     3.150590100000   -15.572383090000     1.007825032230
         C            1.378854970000     5.978407110000   -18.513042000000    12.000000000000
         C            2.710482880000     6.049457790000   -20.707611890000    12.000000000000
         C            3.801025420000     2.680640610000   -18.783317200000    12.000000000000

  Charge       = 0
  Multiplicity = 1
  Basis Set: AUG-CC-PVDZ
    Blend: AUG-CC-PVDZ
  Basis Set: (AUG-CC-PVDZ AUX)
    Blend: AUG-CC-PVDZ-JKFIT

    Orbital Energies [Eh]
    ---------------------

    Doubly Occupied:

       1A    -15.637071     2A    -15.551216     3A    -11.300916
       4A    -11.263159     5A    -11.245653     6A     -1.352867
       7A     -1.169098     8A     -1.012098     9A     -0.824390
      10A     -0.803731    11A     -0.760666    12A     -0.610096
      13A     -0.603958    14A     -0.601922    15A     -0.570942
      16A     -0.435483    17A     -0.400464    18A     -0.320685

  @DF-RHF Final Energy:  -224.84369688672354

   => Energetics <=

    Nuclear Repulsion Energy =            164.0866959657529094
    One-Electron Energy =                -628.9319574292657080
    Two-Electron Energy =                 240.0015645767892352
    Total Energy =                       -224.8436968867235350

  Dipole Moment: [D]
     X:    -2.0431      Y:    -0.4150      Z:     3.3867     Total:     3.9769

    SAPT Results
  --------------------------------------------------------------------------------------------------------
    Electrostatics                  0.38058194 [mEh]       0.23881878 [kcal/mol]       0.99921776 [kJ/mol]
      Elst10,r                      0.38058194 [mEh]       0.23881878 [kcal/mol]       0.99921776 [kJ/mol]

    Exchange                        0.00000022 [mEh]       0.00000014 [kcal/mol]       0.00000059 [kJ/mol]
      Exch10                        0.00000022 [mEh]       0.00000014 [kcal/mol]       0.00000059 [kJ/mol]
      Exch10(S^2)                   0.00000022 [mEh]       0.00000014 [kcal/mol]       0.00000059 [kJ/mol]

    Induction                      -0.00277032 [mEh]      -0.00173840 [kcal/mol]      -0.00727346 [kJ/mol]
      Ind20,r                      -0.00290937 [mEh]      -0.00182566 [kcal/mol]      -0.00763855 [kJ/mol]
      Exch-Ind20,r                  0.00000064 [mEh]       0.00000040 [kcal/mol]       0.00000168 [kJ/mol]
      delta HF,r (2)                0.00013841 [mEh]       0.00008686 [kcal/mol]       0.00036340 [kJ/mol]

    Dispersion                     -0.00685075 [mEh]      -0.00429891 [kcal/mol]      -0.01798665 [kJ/mol]
      Disp20                       -0.00685081 [mEh]      -0.00429895 [kcal/mol]      -0.01798681 [kJ/mol]
      Exch-Disp20                   0.00000006 [mEh]       0.00000004 [kcal/mol]       0.00000016 [kJ/mol]
      Disp20 (SS)                  -0.00342541 [mEh]      -0.00214948 [kcal/mol]      -0.00899340 [kJ/mol]
      Disp20 (OS)                  -0.00342541 [mEh]      -0.00214948 [kcal/mol]      -0.00899340 [kJ/mol]
      Exch-Disp20 (SS)              0.00000005 [mEh]       0.00000003 [kcal/mol]       0.00000013 [kJ/mol]
      Exch-Disp20 (OS)              0.00000001 [mEh]       0.00000001 [kcal/mol]       0.00000003 [kJ/mol]

  Total HF                          0.37781185 [mEh]       0.23708052 [kcal/mol]       0.99194488 [kJ/mol]
  Total SAPT0                       0.37096110 [mEh]       0.23278160 [kcal/mol]       0.97395822 [kJ/mol]

  Special recipe for scaled SAPT0 (see Manual):
    Electrostatics sSAPT0           0.38058194 [mEh]       0.23881878 [kcal/mol]       0.99921776 [kJ/mol]
    Exchange sSAPT0                 0.00000022 [mEh]       0.00000014 [kcal/mol]       0.00000059 [kJ/mol]
    Induction sSAPT0               -0.00277032 [mEh]      -0.00173840 [kcal/mol]      -0.00727346 [kJ/mol]
    Dispersion sSAPT0              -0.00685075 [mEh]      -0.00429891 [kcal/mol]      -0.01798665 [kJ/mol]
  Total sSAPT0                      0.37096110 [mEh]       0.23278160 [kcal/mol]       0.97395822 [kJ/mol]
  --------------------------------------------------------------------------------------------------------

*** Psi4 exiting successfully. Buy a developer a beer!
