                               Psi4 1.4rc3

  ==> Input File <==

--------------------------------------------------------------------------
# PSI4 file produced by CrystaLattE

# Generated from:               imidazole.xyz
# Psithon input for N-mer:      2mer-0+29
# Number of atoms per monomer:  [9, 9]
# Number of replicas:           2
# COM priority:                 1.632769970130e-04
# Minimum COM separations:      9.682
# Separation priority:          3.580706794925e-04
# Minimum monomer separations:  7.452
# Cutoff priority:              2.542679844918e-05
# Nuclear repulsion energy:     398.65740359222207

memory 7 GB

molecule Dimer_0_29 {
  N           -4.29309621      -3.06837431       5.30516231
  N           -2.15847371      -2.92627296       1.72037448
  H           -0.02545587      -6.35903575       2.22046452
  H           -2.68566968      -6.53260241       6.61445954
  H           -4.74388423      -0.00609006       2.75615968
  H           -1.41045540      -2.24723147       0.00000000
  C           -1.43737991      -5.07504848       2.94065891
  C           -2.76900782      -5.14609916       5.13522880
  C           -3.85955036      -1.77728198       3.21093411
--
  N            5.55299927       9.04678142      13.39723417
  N            7.68762177       8.90468007       9.81244634
  H            9.82063962      12.33744286      10.31253638
  H            7.16042580      12.51100952      14.70653140
  H            5.10221126       5.98449717      10.84823154
  H            8.43564008       8.22563858       8.09207186
  C            8.40871557      11.05345559      11.03273078
  C            7.07708766      11.12450627      13.22730066
  C            5.98654513       7.75568909      11.30300598
units = au
no_com
no_reorient
}

set {
  e_convergence 10
  d_convergence 10
  scf_type df
  mp2_type df
  cc_type df
  freeze_core true
}

energy('sapt0/aug-cc-pvdz')

--------------------------------------------------------------------------

  //              Dimer HF             //
    Molecular point group: c1
  Charge       = 0
  Multiplicity = 1
  Basis Set: AUG-CC-PVDZ
    Blend: AUG-CC-PVDZ
  Basis Set: (AUG-CC-PVDZ AUX)
    Blend: AUG-CC-PVDZ-JKFIT
  @DF-RHF Final Energy:  -449.68710140383149
    Total Energy =                       -449.6871014038315479
  //            Monomer A HF           //
    Molecular point group: c1
  Multiplicity = 1
  Basis Set: AUG-CC-PVDZ
    Blend: AUG-CC-PVDZ
  Basis Set: (AUG-CC-PVDZ AUX)
    Blend: AUG-CC-PVDZ-JKFIT
  @DF-RHF Final Energy:  -224.84370412212937
    Total Energy =                       -224.8437041221293669
  //            Monomer B HF           //
    Molecular point group: c1

    Geometry (in Bohr), charge = 0, multiplicity = 1:

       Center              X                  Y                   Z               Mass
    ------------   -----------------  -----------------  -----------------  -----------------
      Gh(N)          -4.293096210000    -3.068374310000     5.305162310000    14.003074004430
      Gh(N)          -2.158473710000    -2.926272960000     1.720374480000    14.003074004430
      Gh(H)          -0.025455870000    -6.359035750000     2.220464520000     1.007825032230
      Gh(H)          -2.685669680000    -6.532602410000     6.614459540000     1.007825032230
      Gh(H)          -4.743884230000    -0.006090060000     2.756159680000     1.007825032230
      Gh(H)          -1.410455400000    -2.247231470000     0.000000000000     1.007825032230
      Gh(C)          -1.437379910000    -5.075048480000     2.940658910000    12.000000000000
      Gh(C)          -2.769007820000    -5.146099160000     5.135228800000    12.000000000000
      Gh(C)          -3.859550360000    -1.777281980000     3.210934110000    12.000000000000
         N            5.552999270000     9.046781420000    13.397234170000    14.003074004430
         N            7.687621770000     8.904680070000     9.812446340000    14.003074004430
         H            9.820639620000    12.337442860000    10.312536380000     1.007825032230
         H            7.160425800000    12.511009520000    14.706531400000     1.007825032230
         H            5.102211260000     5.984497170000    10.848231540000     1.007825032230
         H            8.435640080000     8.225638580000     8.092071860000     1.007825032230
         C            8.408715570000    11.053455590000    11.032730780000    12.000000000000
         C            7.077087660000    11.124506270000    13.227300660000    12.000000000000
         C            5.986545130000     7.755689090000    11.303005980000    12.000000000000

  Charge       = 0
  Multiplicity = 1
  Basis Set: AUG-CC-PVDZ
    Blend: AUG-CC-PVDZ
  Basis Set: (AUG-CC-PVDZ AUX)
    Blend: AUG-CC-PVDZ-JKFIT

    Orbital Energies [Eh]
    ---------------------

    Doubly Occupied:

       1A    -15.637071     2A    -15.551215     3A    -11.300907
       4A    -11.263160     5A    -11.245653     6A     -1.352867
       7A     -1.169099     8A     -1.012098     9A     -0.824389
      10A     -0.803731    11A     -0.760665    12A     -0.610096
      13A     -0.603958    14A     -0.601922    15A     -0.570942
      16A     -0.435483    17A     -0.400465    18A     -0.320685

  @DF-RHF Final Energy:  -224.84370107865246

   => Energetics <=

    Nuclear Repulsion Energy =            164.0866960848871088
    One-Electron Energy =                -628.9319832061441957
    Two-Electron Energy =                 240.0015860426046572
    Total Energy =                       -224.8437010786524581

  Dipole Moment: [D]
     X:     2.0430      Y:    -0.4149      Z:    -3.3867     Total:     3.9769

    SAPT Results
  --------------------------------------------------------------------------------------------------------
    Electrostatics                  0.30884579 [mEh]       0.19380366 [kcal/mol]       0.81087450 [kJ/mol]
      Elst10,r                      0.30884579 [mEh]       0.19380366 [kcal/mol]       0.81087450 [kJ/mol]

    Exchange                        0.00000824 [mEh]       0.00000517 [kcal/mol]       0.00002163 [kJ/mol]
      Exch10                        0.00000824 [mEh]       0.00000517 [kcal/mol]       0.00002163 [kJ/mol]
      Exch10(S^2)                   0.00000824 [mEh]       0.00000517 [kcal/mol]       0.00002163 [kJ/mol]

    Induction                      -0.00505707 [mEh]      -0.00317336 [kcal/mol]      -0.01327734 [kJ/mol]
      Ind20,r                      -0.00511442 [mEh]      -0.00320935 [kcal/mol]      -0.01342790 [kJ/mol]
      Exch-Ind20,r                  0.00001364 [mEh]       0.00000856 [kcal/mol]       0.00003580 [kJ/mol]
      delta HF,r (2)                0.00004371 [mEh]       0.00002743 [kcal/mol]       0.00011475 [kJ/mol]

    Dispersion                     -0.03473531 [mEh]      -0.02179674 [kcal/mol]      -0.09119754 [kJ/mol]
      Disp20                       -0.03473625 [mEh]      -0.02179733 [kcal/mol]      -0.09120002 [kJ/mol]
      Exch-Disp20                   0.00000094 [mEh]       0.00000059 [kcal/mol]       0.00000248 [kJ/mol]
      Disp20 (SS)                  -0.01736813 [mEh]      -0.01089866 [kcal/mol]      -0.04560001 [kJ/mol]
      Disp20 (OS)                  -0.01736813 [mEh]      -0.01089866 [kcal/mol]      -0.04560001 [kJ/mol]
      Exch-Disp20 (SS)              0.00000076 [mEh]       0.00000048 [kcal/mol]       0.00000200 [kJ/mol]
      Exch-Disp20 (OS)              0.00000018 [mEh]       0.00000011 [kcal/mol]       0.00000048 [kJ/mol]

  Total HF                          0.30379695 [mEh]       0.19063546 [kcal/mol]       0.79761878 [kJ/mol]
  Total SAPT0                       0.26906164 [mEh]       0.16883873 [kcal/mol]       0.70642124 [kJ/mol]

  Special recipe for scaled SAPT0 (see Manual):
    Electrostatics sSAPT0           0.30884579 [mEh]       0.19380366 [kcal/mol]       0.81087450 [kJ/mol]
    Exchange sSAPT0                 0.00000824 [mEh]       0.00000517 [kcal/mol]       0.00002163 [kJ/mol]
    Induction sSAPT0               -0.00505707 [mEh]      -0.00317336 [kcal/mol]      -0.01327734 [kJ/mol]
    Dispersion sSAPT0              -0.03473531 [mEh]      -0.02179674 [kcal/mol]      -0.09119754 [kJ/mol]
  Total sSAPT0                      0.26906164 [mEh]       0.16883873 [kcal/mol]       0.70642124 [kJ/mol]
  --------------------------------------------------------------------------------------------------------

*** Psi4 exiting successfully. Buy a developer a beer!
