                               Psi4 1.4rc3

  ==> Input File <==

--------------------------------------------------------------------------
# PSI4 file produced by CrystaLattE

# Generated from:               imidazole.xyz
# Psithon input for N-mer:      2mer-0+5
# Number of atoms per monomer:  [9, 9]
# Number of replicas:           1
# COM priority:                 4.489833044981e-04
# Minimum COM separations:      6.911
# Separation priority:          2.965860668393e-03
# Minimum monomer separations:  3.683
# Cutoff priority:              4.261223625747e-04
# Nuclear repulsion energy:     429.42802197176786

memory 7 GB

molecule Dimer_0_5 {
  N           -4.29309621      -3.06837431       5.30516231
  N           -2.15847371      -2.92627296       1.72037448
  H           -0.02545587      -6.35903575       2.22046452
  H           -2.68566968      -6.53260241       6.61445954
  H           -4.74388423      -0.00609006       2.75615968
  H           -1.41045540      -2.24723147       0.00000000
  C           -1.43737991      -5.07504848       2.94065891
  C           -2.76900782      -5.14609916       5.13522880
  C           -3.85955036      -1.77728198       3.21093411
--
  N            9.59848081      -6.17836402      -4.69340168
  N            7.46385831      -6.32046538      -1.10861384
  H            5.33084047      -2.88770259      -1.60870389
  H            7.99105428      -2.71413593      -6.00269891
  H           10.04926883      -9.24064828      -2.14439904
  H            6.71584001      -6.99950687       0.61176063
  C            6.74276451      -4.17168985      -2.32889828
  C            8.07439242      -4.10063917      -4.52346817
  C            9.16493496      -7.46945636      -2.59917348
units = au
no_com
no_reorient
}

set {
  e_convergence 10
  d_convergence 10
  scf_type df
  mp2_type df
  cc_type df
  freeze_core true
}

energy('sapt0/aug-cc-pvdz')

--------------------------------------------------------------------------

  //              Dimer HF             //
    Molecular point group: c1
  Charge       = 0
  Multiplicity = 1
  Basis Set: AUG-CC-PVDZ
    Blend: AUG-CC-PVDZ
  Basis Set: (AUG-CC-PVDZ AUX)
    Blend: AUG-CC-PVDZ-JKFIT
  @DF-RHF Final Energy:  -449.68679318684099
    Total Energy =                       -449.6867931868409869
  //            Monomer A HF           //
    Molecular point group: c1
  Multiplicity = 1
  Basis Set: AUG-CC-PVDZ
    Blend: AUG-CC-PVDZ
  Basis Set: (AUG-CC-PVDZ AUX)
    Blend: AUG-CC-PVDZ-JKFIT
  @DF-RHF Final Energy:  -224.84376277761083
    Total Energy =                       -224.8437627776108343
  //            Monomer B HF           //
    Molecular point group: c1

    Geometry (in Bohr), charge = 0, multiplicity = 1:

       Center              X                  Y                   Z               Mass
    ------------   -----------------  -----------------  -----------------  -----------------
      Gh(N)          -4.293096210000    -3.068374310000     5.305162310000    14.003074004430
      Gh(N)          -2.158473710000    -2.926272960000     1.720374480000    14.003074004430
      Gh(H)          -0.025455870000    -6.359035750000     2.220464520000     1.007825032230
      Gh(H)          -2.685669680000    -6.532602410000     6.614459540000     1.007825032230
      Gh(H)          -4.743884230000    -0.006090060000     2.756159680000     1.007825032230
      Gh(H)          -1.410455400000    -2.247231470000     0.000000000000     1.007825032230
      Gh(C)          -1.437379910000    -5.075048480000     2.940658910000    12.000000000000
      Gh(C)          -2.769007820000    -5.146099160000     5.135228800000    12.000000000000
      Gh(C)          -3.859550360000    -1.777281980000     3.210934110000    12.000000000000
         N            9.598480810000    -6.178364020000    -4.693401680000    14.003074004430
         N            7.463858310000    -6.320465380000    -1.108613840000    14.003074004430
         H            5.330840470000    -2.887702590000    -1.608703890000     1.007825032230
         H            7.991054280000    -2.714135930000    -6.002698910000     1.007825032230
         H           10.049268830000    -9.240648280000    -2.144399040000     1.007825032230
         H            6.715840010000    -6.999506870000     0.611760630000     1.007825032230
         C            6.742764510000    -4.171689850000    -2.328898280000    12.000000000000
         C            8.074392420000    -4.100639170000    -4.523468170000    12.000000000000
         C            9.164934960000    -7.469456360000    -2.599173480000    12.000000000000

  Charge       = 0
  Multiplicity = 1
  Basis Set: AUG-CC-PVDZ
    Blend: AUG-CC-PVDZ
  Basis Set: (AUG-CC-PVDZ AUX)
    Blend: AUG-CC-PVDZ-JKFIT

    Orbital Energies [Eh]
    ---------------------

    Doubly Occupied:

       1A    -15.637084     2A    -15.551221     3A    -11.300911
       4A    -11.263156     5A    -11.245653     6A     -1.352869
       7A     -1.169102     8A     -1.012101     9A     -0.824391
      10A     -0.803736    11A     -0.760671    12A     -0.610099
      13A     -0.603961    14A     -0.601928    15A     -0.570951
      16A     -0.435486    17A     -0.400474    18A     -0.320686

  @DF-RHF Final Energy:  -224.84376277757676

   => Energetics <=

    Nuclear Repulsion Energy =            164.0866957764485790
    One-Electron Energy =                -628.9319552063561787
    Two-Electron Energy =                 240.0014966523308715
    Total Energy =                       -224.8437627775767567

  Dipole Moment: [D]
     X:    -2.0430      Y:    -0.4143      Z:     3.3862     Total:     3.9764

    SAPT Results
  --------------------------------------------------------------------------------------------------------
    Electrostatics                  0.82306926 [mEh]       0.51648376 [kcal/mol]       2.16096803 [kJ/mol]
      Elst10,r                      0.82306926 [mEh]       0.51648376 [kcal/mol]       2.16096803 [kJ/mol]

    Exchange                        0.02509172 [mEh]       0.01574529 [kcal/mol]       0.06587829 [kJ/mol]
      Exch10                        0.02509172 [mEh]       0.01574529 [kcal/mol]       0.06587829 [kJ/mol]
      Exch10(S^2)                   0.02509114 [mEh]       0.01574493 [kcal/mol]       0.06587679 [kJ/mol]

    Induction                      -0.11579263 [mEh]      -0.07266097 [kcal/mol]      -0.30401350 [kJ/mol]
      Ind20,r                      -0.12352569 [mEh]      -0.07751354 [kcal/mol]      -0.32431665 [kJ/mol]
      Exch-Ind20,r                  0.00635050 [mEh]       0.00398500 [kcal/mol]       0.01667324 [kJ/mol]
      delta HF,r (2)                0.00138256 [mEh]       0.00086757 [kcal/mol]       0.00362991 [kJ/mol]

    Dispersion                     -0.55859250 [mEh]      -0.35052208 [kcal/mol]      -1.46658440 [kJ/mol]
      Disp20                       -0.56235421 [mEh]      -0.35288260 [kcal/mol]      -1.47646079 [kJ/mol]
      Exch-Disp20                   0.00376172 [mEh]       0.00236051 [kcal/mol]       0.00987639 [kJ/mol]
      Disp20 (SS)                  -0.28117711 [mEh]      -0.17644130 [kcal/mol]      -0.73823039 [kJ/mol]
      Disp20 (OS)                  -0.28117711 [mEh]      -0.17644130 [kcal/mol]      -0.73823039 [kJ/mol]
      Exch-Disp20 (SS)              0.00262830 [mEh]       0.00164928 [kcal/mol]       0.00690060 [kJ/mol]
      Exch-Disp20 (OS)              0.00113342 [mEh]       0.00071123 [kcal/mol]       0.00297579 [kJ/mol]

  Total HF                          0.73236835 [mEh]       0.45956808 [kcal/mol]       1.92283283 [kJ/mol]
  Total SAPT0                       0.17377585 [mEh]       0.10904599 [kcal/mol]       0.45624843 [kJ/mol]

  Special recipe for scaled SAPT0 (see Manual):
    Electrostatics sSAPT0           0.82306926 [mEh]       0.51648376 [kcal/mol]       2.16096803 [kJ/mol]
    Exchange sSAPT0                 0.02509172 [mEh]       0.01574529 [kcal/mol]       0.06587829 [kJ/mol]
    Induction sSAPT0               -0.11579219 [mEh]      -0.07266070 [kcal/mol]      -0.30401235 [kJ/mol]
    Dispersion sSAPT0              -0.55859224 [mEh]      -0.35052192 [kcal/mol]      -1.46658372 [kJ/mol]
  Total sSAPT0                      0.17377654 [mEh]       0.10904643 [kcal/mol]       0.45625025 [kJ/mol]
  --------------------------------------------------------------------------------------------------------

*** Psi4 exiting successfully. Buy a developer a beer!
