                               Psi4 1.4rc3

  ==> Input File <==

--------------------------------------------------------------------------
# PSI4 file produced by CrystaLattE

# Generated from:               imidazole.xyz
# Psithon input for N-mer:      2mer-0+676
# Number of atoms per monomer:  [9, 9]
# Number of replicas:           1
# COM priority:                 1.347188283626e-05
# Minimum COM separations:      22.240
# Separation priority:          2.110313529388e-05
# Minimum monomer separations:  19.149
# Cutoff priority:              5.831710785035e-07
# Nuclear repulsion energy:     358.9802696898093

memory 7 GB

molecule Dimer_0_676 {
  N           -4.29309621      -3.06837431       5.30516231
  N           -2.15847371      -2.92627296       1.72037448
  H           -0.02545587      -6.35903575       2.22046452
  H           -2.68566968      -6.53260241       6.61445954
  H           -4.74388423      -0.00609006       2.75615968
  H           -1.41045540      -2.24723147       0.00000000
  C           -1.43737991      -5.07504848       2.94065891
  C           -2.76900782      -5.14609916       5.13522880
  C           -3.85955036      -1.77728198       3.21093411
--
  N           -2.96635342      -6.17836402      43.85902949
  N           -5.10097592      -6.32046538      47.44381732
  H           -7.23399377      -2.88770259      46.94372728
  H           -4.57377995      -2.71413593      42.54973226
  H           -2.51556541      -9.24064828      46.40803212
  H           -5.84899423      -6.99950687      49.16419180
  C           -5.82206972      -4.17168985      46.22353288
  C           -4.49044181      -4.10063917      44.02896299
  C           -3.39989928      -7.46945636      45.95325768
units = au
no_com
no_reorient
}

set {
  e_convergence 10
  d_convergence 10
  scf_type df
  mp2_type df
  cc_type df
  freeze_core true
}

energy('sapt0/aug-cc-pvdz')

--------------------------------------------------------------------------

  //              Dimer HF             //
    Molecular point group: c1
  Charge       = 0
  Multiplicity = 1
  Basis Set: AUG-CC-PVDZ
    Blend: AUG-CC-PVDZ
  Basis Set: (AUG-CC-PVDZ AUX)
    Blend: AUG-CC-PVDZ-JKFIT
  @DF-RHF Final Energy:  -449.68735437254031
    Total Energy =                       -449.6873543725403124
  //            Monomer A HF           //
    Molecular point group: c1
  Multiplicity = 1
  Basis Set: AUG-CC-PVDZ
    Blend: AUG-CC-PVDZ
  Basis Set: (AUG-CC-PVDZ AUX)
    Blend: AUG-CC-PVDZ-JKFIT
  @DF-RHF Final Energy:  -224.84369627700272
    Total Energy =                       -224.8436962770027208
  //            Monomer B HF           //
    Molecular point group: c1

    Geometry (in Bohr), charge = 0, multiplicity = 1:

       Center              X                  Y                   Z               Mass
    ------------   -----------------  -----------------  -----------------  -----------------
      Gh(N)          -4.293096210000    -3.068374310000     5.305162310000    14.003074004430
      Gh(N)          -2.158473710000    -2.926272960000     1.720374480000    14.003074004430
      Gh(H)          -0.025455870000    -6.359035750000     2.220464520000     1.007825032230
      Gh(H)          -2.685669680000    -6.532602410000     6.614459540000     1.007825032230
      Gh(H)          -4.743884230000    -0.006090060000     2.756159680000     1.007825032230
      Gh(H)          -1.410455400000    -2.247231470000     0.000000000000     1.007825032230
      Gh(C)          -1.437379910000    -5.075048480000     2.940658910000    12.000000000000
      Gh(C)          -2.769007820000    -5.146099160000     5.135228800000    12.000000000000
      Gh(C)          -3.859550360000    -1.777281980000     3.210934110000    12.000000000000
         N           -2.966353420000    -6.178364020000    43.859029490000    14.003074004430
         N           -5.100975920000    -6.320465380000    47.443817320000    14.003074004430
         H           -7.233993770000    -2.887702590000    46.943727280000     1.007825032230
         H           -4.573779950000    -2.714135930000    42.549732260000     1.007825032230
         H           -2.515565410000    -9.240648280000    46.408032120000     1.007825032230
         H           -5.848994230000    -6.999506870000    49.164191800000     1.007825032230
         C           -5.822069720000    -4.171689850000    46.223532880000    12.000000000000
         C           -4.490441810000    -4.100639170000    44.028962990000    12.000000000000
         C           -3.399899280000    -7.469456360000    45.953257680000    12.000000000000

  Charge       = 0
  Multiplicity = 1
  Basis Set: AUG-CC-PVDZ
    Blend: AUG-CC-PVDZ
  Basis Set: (AUG-CC-PVDZ AUX)
    Blend: AUG-CC-PVDZ-JKFIT

    Orbital Energies [Eh]
    ---------------------

    Doubly Occupied:

       1A    -15.637071     2A    -15.551216     3A    -11.300916
       4A    -11.263160     5A    -11.245653     6A     -1.352867
       7A     -1.169098     8A     -1.012098     9A     -0.824390
      10A     -0.803731    11A     -0.760666    12A     -0.610096
      13A     -0.603958    14A     -0.601922    15A     -0.570942
      16A     -0.435483    17A     -0.400464    18A     -0.320685

  @DF-RHF Final Energy:  -224.84369627775160

   => Energetics <=

    Nuclear Repulsion Energy =            164.0866958959437909
    One-Electron Energy =                -628.9319561051913752
    Two-Electron Energy =                 240.0015639314960083
    Total Energy =                       -224.8436962777516044

  Dipole Moment: [D]
     X:    -2.0431      Y:    -0.4150      Z:     3.3867     Total:     3.9769

    SAPT Results
  --------------------------------------------------------------------------------------------------------
    Electrostatics                  0.03823229 [mEh]       0.02399113 [kcal/mol]       0.10037887 [kJ/mol]
      Elst10,r                      0.03823229 [mEh]       0.02399113 [kcal/mol]       0.10037887 [kJ/mol]

    Exchange                        0.00000000 [mEh]       0.00000000 [kcal/mol]       0.00000000 [kJ/mol]
      Exch10                        0.00000000 [mEh]       0.00000000 [kcal/mol]       0.00000000 [kJ/mol]
      Exch10(S^2)                   0.00000000 [mEh]       0.00000000 [kcal/mol]       0.00000000 [kJ/mol]

    Induction                      -0.00005008 [mEh]      -0.00003142 [kcal/mol]      -0.00013148 [kJ/mol]
      Ind20,r                      -0.00006662 [mEh]      -0.00004180 [kcal/mol]      -0.00017490 [kJ/mol]
      Exch-Ind20,r                  0.00000000 [mEh]       0.00000000 [kcal/mol]       0.00000000 [kJ/mol]
      delta HF,r (2)                0.00001654 [mEh]       0.00001038 [kcal/mol]       0.00004342 [kJ/mol]

    Dispersion                     -0.00024696 [mEh]      -0.00015497 [kcal/mol]      -0.00064840 [kJ/mol]
      Disp20                       -0.00024696 [mEh]      -0.00015497 [kcal/mol]      -0.00064840 [kJ/mol]
      Exch-Disp20                   0.00000000 [mEh]       0.00000000 [kcal/mol]       0.00000000 [kJ/mol]
      Disp20 (SS)                  -0.00012348 [mEh]      -0.00007749 [kcal/mol]      -0.00032420 [kJ/mol]
      Disp20 (OS)                  -0.00012348 [mEh]      -0.00007749 [kcal/mol]      -0.00032420 [kJ/mol]
      Exch-Disp20 (SS)              0.00000000 [mEh]       0.00000000 [kcal/mol]       0.00000000 [kJ/mol]
      Exch-Disp20 (OS)              0.00000000 [mEh]       0.00000000 [kcal/mol]       0.00000000 [kJ/mol]

  Total HF                          0.03818221 [mEh]       0.02395970 [kcal/mol]       0.10024739 [kJ/mol]
  Total SAPT0                       0.03793525 [mEh]       0.02380473 [kcal/mol]       0.09959899 [kJ/mol]

  Special recipe for scaled SAPT0 (see Manual):
    Electrostatics sSAPT0           0.03823229 [mEh]       0.02399113 [kcal/mol]       0.10037887 [kJ/mol]
    Exchange sSAPT0                 0.00000000 [mEh]       0.00000000 [kcal/mol]       0.00000000 [kJ/mol]
    Induction sSAPT0               -0.00005008 [mEh]      -0.00003142 [kcal/mol]      -0.00013148 [kJ/mol]
    Dispersion sSAPT0              -0.00024696 [mEh]      -0.00015497 [kcal/mol]      -0.00064840 [kJ/mol]
  Total sSAPT0                      0.03793525 [mEh]       0.02380473 [kcal/mol]       0.09959899 [kJ/mol]
  --------------------------------------------------------------------------------------------------------

*** Psi4 exiting successfully. Buy a developer a beer!
