                               Psi4 1.4rc3

  ==> Input File <==

--------------------------------------------------------------------------
# PSI4 file produced by CrystaLattE

# Generated from:               imidazole.xyz
# Psithon input for N-mer:      2mer-0+355
# Number of atoms per monomer:  [9, 9]
# Number of replicas:           1
# COM priority:                 1.348720482019e-05
# Minimum COM separations:      22.231
# Separation priority:          2.239093241537e-05
# Minimum monomer separations:  18.775
# Cutoff priority:              6.310971788411e-07
# Nuclear repulsion energy:     359.1151404099551

memory 7 GB

molecule Dimer_0_355 {
  N           -4.29309621      -3.06837431       5.30516231
  N           -2.15847371      -2.92627296       1.72037448
  H           -0.02545587      -6.35903575       2.22046452
  H           -2.68566968      -6.53260241       6.61445954
  H           -4.74388423      -0.00609006       2.75615968
  H           -1.41045540      -2.24723147       0.00000000
  C           -1.43737991      -5.07504848       2.94065891
  C           -2.76900782      -5.14609916       5.13522880
  C           -3.85955036      -1.77728198       3.21093411
--
  N           32.89113413       3.97173294     -20.87754540
  N           30.75651163       3.82963158     -17.29275757
  H           28.62349379       7.26239438     -17.79284761
  H           31.28370760       7.43596104     -22.18684263
  H           33.34192214       0.90944869     -18.32854276
  H           30.00849332       3.15059010     -15.57238309
  C           30.03541783       5.97840711     -18.51304200
  C           31.36704574       6.04945779     -20.70761189
  C           32.45758828       2.68064061     -18.78331720
units = au
no_com
no_reorient
}

set {
  e_convergence 10
  d_convergence 10
  scf_type df
  mp2_type df
  cc_type df
  freeze_core true
}

energy('sapt0/aug-cc-pvdz')

--------------------------------------------------------------------------

  //              Dimer HF             //
    Molecular point group: c1
  Charge       = 0
  Multiplicity = 1
  Basis Set: AUG-CC-PVDZ
    Blend: AUG-CC-PVDZ
  Basis Set: (AUG-CC-PVDZ AUX)
    Blend: AUG-CC-PVDZ-JKFIT
  @DF-RHF Final Energy:  -449.68734947221247
    Total Energy =                       -449.6873494722124747
  //            Monomer A HF           //
    Molecular point group: c1
  Multiplicity = 1
  Basis Set: AUG-CC-PVDZ
    Blend: AUG-CC-PVDZ
  Basis Set: (AUG-CC-PVDZ AUX)
    Blend: AUG-CC-PVDZ-JKFIT
  @DF-RHF Final Energy:  -224.84369627840942
    Total Energy =                       -224.8436962784094248
  //            Monomer B HF           //
    Molecular point group: c1

    Geometry (in Bohr), charge = 0, multiplicity = 1:

       Center              X                  Y                   Z               Mass
    ------------   -----------------  -----------------  -----------------  -----------------
      Gh(N)          -4.293096210000    -3.068374310000     5.305162310000    14.003074004430
      Gh(N)          -2.158473710000    -2.926272960000     1.720374480000    14.003074004430
      Gh(H)          -0.025455870000    -6.359035750000     2.220464520000     1.007825032230
      Gh(H)          -2.685669680000    -6.532602410000     6.614459540000     1.007825032230
      Gh(H)          -4.743884230000    -0.006090060000     2.756159680000     1.007825032230
      Gh(H)          -1.410455400000    -2.247231470000     0.000000000000     1.007825032230
      Gh(C)          -1.437379910000    -5.075048480000     2.940658910000    12.000000000000
      Gh(C)          -2.769007820000    -5.146099160000     5.135228800000    12.000000000000
      Gh(C)          -3.859550360000    -1.777281980000     3.210934110000    12.000000000000
         N           32.891134130000     3.971732940000   -20.877545400000    14.003074004430
         N           30.756511630000     3.829631580000   -17.292757570000    14.003074004430
         H           28.623493790000     7.262394380000   -17.792847610000     1.007825032230
         H           31.283707600000     7.435961040000   -22.186842630000     1.007825032230
         H           33.341922140000     0.909448690000   -18.328542760000     1.007825032230
         H           30.008493320000     3.150590100000   -15.572383090000     1.007825032230
         C           30.035417830000     5.978407110000   -18.513042000000    12.000000000000
         C           31.367045740000     6.049457790000   -20.707611890000    12.000000000000
         C           32.457588280000     2.680640610000   -18.783317200000    12.000000000000

  Charge       = 0
  Multiplicity = 1
  Basis Set: AUG-CC-PVDZ
    Blend: AUG-CC-PVDZ
  Basis Set: (AUG-CC-PVDZ AUX)
    Blend: AUG-CC-PVDZ-JKFIT

    Orbital Energies [Eh]
    ---------------------

    Doubly Occupied:

       1A    -15.637071     2A    -15.551216     3A    -11.300916
       4A    -11.263160     5A    -11.245653     6A     -1.352867
       7A     -1.169098     8A     -1.012098     9A     -0.824390
      10A     -0.803731    11A     -0.760666    12A     -0.610096
      13A     -0.603958    14A     -0.601922    15A     -0.570942
      16A     -0.435483    17A     -0.400464    18A     -0.320685

  @DF-RHF Final Energy:  -224.84369627746844

   => Energetics <=

    Nuclear Repulsion Energy =            164.0866959669377536
    One-Electron Energy =                -628.9319562423847856
    Two-Electron Energy =                 240.0015639979785647
    Total Energy =                       -224.8436962774684389

  Dipole Moment: [D]
     X:    -2.0431      Y:    -0.4150      Z:     3.3867     Total:     3.9769

    SAPT Results
  --------------------------------------------------------------------------------------------------------
    Electrostatics                  0.04315807 [mEh]       0.02708210 [kcal/mol]       0.11331149 [kJ/mol]
      Elst10,r                      0.04315807 [mEh]       0.02708210 [kcal/mol]       0.11331149 [kJ/mol]

    Exchange                        0.00000000 [mEh]       0.00000000 [kcal/mol]       0.00000000 [kJ/mol]
      Exch10                        0.00000000 [mEh]       0.00000000 [kcal/mol]       0.00000000 [kJ/mol]
      Exch10(S^2)                   0.00000000 [mEh]       0.00000000 [kcal/mol]       0.00000000 [kJ/mol]

    Induction                      -0.00007440 [mEh]      -0.00004669 [kcal/mol]      -0.00019535 [kJ/mol]
      Ind20,r                      -0.00007076 [mEh]      -0.00004440 [kcal/mol]      -0.00018579 [kJ/mol]
      Exch-Ind20,r                  0.00000000 [mEh]       0.00000000 [kcal/mol]       0.00000000 [kJ/mol]
      delta HF,r (2)               -0.00000364 [mEh]      -0.00000228 [kcal/mol]      -0.00000956 [kJ/mol]

    Dispersion                     -0.00024263 [mEh]      -0.00015226 [kcal/mol]      -0.00063704 [kJ/mol]
      Disp20                       -0.00024263 [mEh]      -0.00015226 [kcal/mol]      -0.00063704 [kJ/mol]
      Exch-Disp20                   0.00000000 [mEh]       0.00000000 [kcal/mol]       0.00000000 [kJ/mol]
      Disp20 (SS)                  -0.00012132 [mEh]      -0.00007613 [kcal/mol]      -0.00031852 [kJ/mol]
      Disp20 (OS)                  -0.00012132 [mEh]      -0.00007613 [kcal/mol]      -0.00031852 [kJ/mol]
      Exch-Disp20 (SS)              0.00000000 [mEh]       0.00000000 [kcal/mol]       0.00000000 [kJ/mol]
      Exch-Disp20 (OS)              0.00000000 [mEh]       0.00000000 [kcal/mol]       0.00000000 [kJ/mol]

  Total HF                          0.04308367 [mEh]       0.02703541 [kcal/mol]       0.11311615 [kJ/mol]
  Total SAPT0                       0.04284103 [mEh]       0.02688315 [kcal/mol]       0.11247911 [kJ/mol]

  Special recipe for scaled SAPT0 (see Manual):
    Electrostatics sSAPT0           0.04315807 [mEh]       0.02708210 [kcal/mol]       0.11331149 [kJ/mol]
    Exchange sSAPT0                 0.00000000 [mEh]       0.00000000 [kcal/mol]       0.00000000 [kJ/mol]
    Induction sSAPT0               -0.00007440 [mEh]      -0.00004669 [kcal/mol]      -0.00019535 [kJ/mol]
    Dispersion sSAPT0              -0.00024263 [mEh]      -0.00015226 [kcal/mol]      -0.00063704 [kJ/mol]
  Total sSAPT0                      0.04284103 [mEh]       0.02688315 [kcal/mol]       0.11247911 [kJ/mol]
  --------------------------------------------------------------------------------------------------------

*** Psi4 exiting successfully. Buy a developer a beer!
