                               Psi4 1.4rc3

  ==> Input File <==

--------------------------------------------------------------------------
# PSI4 file produced by CrystaLattE

# Generated from:               imidazole.xyz
# Psithon input for N-mer:      2mer-0+465
# Number of atoms per monomer:  [9, 9]
# Number of replicas:           1
# COM priority:                 1.561594090260e-05
# Minimum COM separations:      21.171
# Separation priority:          2.746500071572e-05
# Minimum monomer separations:  17.539
# Cutoff priority:              8.286532148063e-07
# Nuclear repulsion energy:     360.5574334386311

memory 7 GB

molecule Dimer_0_465 {
  N           -4.29309621      -3.06837431       5.30516231
  N           -2.15847371      -2.92627296       1.72037448
  H           -0.02545587      -6.35903575       2.22046452
  H           -2.68566968      -6.53260241       6.61445954
  H           -4.74388423      -0.00609006       2.75615968
  H           -1.41045540      -2.24723147       0.00000000
  C           -1.43737991      -5.07504848       2.94065891
  C           -2.76900782      -5.14609916       5.13522880
  C           -3.85955036      -1.77728198       3.21093411
--
  N          -28.02245393      24.27192687      11.49074204
  N          -30.15707643      24.12982552      15.07552988
  H          -32.29009428      27.56258831      14.57543984
  H          -29.62988046      27.73615497      10.18144482
  H          -27.57166592      21.20964262      14.03974468
  H          -30.90509474      23.45078403      16.79590435
  C          -30.87817023      26.27860104      13.85524544
  C          -29.54654232      26.34965172      11.66067555
  C          -28.45599979      22.98083454      13.58497024
units = au
no_com
no_reorient
}

set {
  e_convergence 10
  d_convergence 10
  scf_type df
  mp2_type df
  cc_type df
  freeze_core true
}

energy('sapt0/aug-cc-pvdz')

--------------------------------------------------------------------------

  //              Dimer HF             //
    Molecular point group: c1
  Charge       = 0
  Multiplicity = 1
  Basis Set: AUG-CC-PVDZ
    Blend: AUG-CC-PVDZ
  Basis Set: (AUG-CC-PVDZ AUX)
    Blend: AUG-CC-PVDZ-JKFIT
  @DF-RHF Final Energy:  -449.68741496812441
    Total Energy =                       -449.6874149681243580
  //            Monomer A HF           //
    Molecular point group: c1
  Multiplicity = 1
  Basis Set: AUG-CC-PVDZ
    Blend: AUG-CC-PVDZ
  Basis Set: (AUG-CC-PVDZ AUX)
    Blend: AUG-CC-PVDZ-JKFIT
  @DF-RHF Final Energy:  -224.84369627803912
    Total Energy =                       -224.8436962780391184
  //            Monomer B HF           //
    Molecular point group: c1

    Geometry (in Bohr), charge = 0, multiplicity = 1:

       Center              X                  Y                   Z               Mass
    ------------   -----------------  -----------------  -----------------  -----------------
      Gh(N)          -4.293096210000    -3.068374310000     5.305162310000    14.003074004430
      Gh(N)          -2.158473710000    -2.926272960000     1.720374480000    14.003074004430
      Gh(H)          -0.025455870000    -6.359035750000     2.220464520000     1.007825032230
      Gh(H)          -2.685669680000    -6.532602410000     6.614459540000     1.007825032230
      Gh(H)          -4.743884230000    -0.006090060000     2.756159680000     1.007825032230
      Gh(H)          -1.410455400000    -2.247231470000     0.000000000000     1.007825032230
      Gh(C)          -1.437379910000    -5.075048480000     2.940658910000    12.000000000000
      Gh(C)          -2.769007820000    -5.146099160000     5.135228800000    12.000000000000
      Gh(C)          -3.859550360000    -1.777281980000     3.210934110000    12.000000000000
         N          -28.022453930000    24.271926870000    11.490742040000    14.003074004430
         N          -30.157076430000    24.129825520000    15.075529880000    14.003074004430
         H          -32.290094280000    27.562588310000    14.575439840000     1.007825032230
         H          -29.629880460000    27.736154970000    10.181444820000     1.007825032230
         H          -27.571665920000    21.209642620000    14.039744680000     1.007825032230
         H          -30.905094740000    23.450784030000    16.795904350000     1.007825032230
         C          -30.878170230000    26.278601040000    13.855245440000    12.000000000000
         C          -29.546542320000    26.349651720000    11.660675550000    12.000000000000
         C          -28.455999790000    22.980834540000    13.584970240000    12.000000000000

  Charge       = 0
  Multiplicity = 1
  Basis Set: AUG-CC-PVDZ
    Blend: AUG-CC-PVDZ
  Basis Set: (AUG-CC-PVDZ AUX)
    Blend: AUG-CC-PVDZ-JKFIT

    Orbital Energies [Eh]
    ---------------------

    Doubly Occupied:

       1A    -15.637071     2A    -15.551216     3A    -11.300916
       4A    -11.263160     5A    -11.245653     6A     -1.352867
       7A     -1.169098     8A     -1.012098     9A     -0.824390
      10A     -0.803731    11A     -0.760666    12A     -0.610096
      13A     -0.603958    14A     -0.601922    15A     -0.570942
      16A     -0.435483    17A     -0.400464    18A     -0.320685

  @DF-RHF Final Energy:  -224.84369627726409

   => Energetics <=

    Nuclear Repulsion Energy =            164.0866959397855283
    One-Electron Energy =                -628.9319561836264256
    Two-Electron Energy =                 240.0015639665768390
    Total Energy =                       -224.8436962772640868

  Dipole Moment: [D]
     X:    -2.0431      Y:    -0.4150      Z:     3.3867     Total:     3.9769

    SAPT Results
  --------------------------------------------------------------------------------------------------------
    Electrostatics                 -0.02234810 [mEh]      -0.01402365 [kcal/mol]      -0.05867494 [kJ/mol]
      Elst10,r                     -0.02234810 [mEh]      -0.01402365 [kcal/mol]      -0.05867494 [kJ/mol]

    Exchange                       -0.00000000 [mEh]      -0.00000000 [kcal/mol]      -0.00000000 [kJ/mol]
      Exch10                       -0.00000000 [mEh]      -0.00000000 [kcal/mol]      -0.00000000 [kJ/mol]
      Exch10(S^2)                  -0.00000000 [mEh]      -0.00000000 [kcal/mol]      -0.00000000 [kJ/mol]

    Induction                      -0.00006472 [mEh]      -0.00004061 [kcal/mol]      -0.00016991 [kJ/mol]
      Ind20,r                      -0.00006386 [mEh]      -0.00004007 [kcal/mol]      -0.00016766 [kJ/mol]
      Exch-Ind20,r                  0.00000000 [mEh]       0.00000000 [kcal/mol]       0.00000000 [kJ/mol]
      delta HF,r (2)               -0.00000086 [mEh]      -0.00000054 [kcal/mol]      -0.00000225 [kJ/mol]

    Dispersion                     -0.00033781 [mEh]      -0.00021198 [kcal/mol]      -0.00088692 [kJ/mol]
      Disp20                       -0.00033781 [mEh]      -0.00021198 [kcal/mol]      -0.00088692 [kJ/mol]
      Exch-Disp20                   0.00000000 [mEh]       0.00000000 [kcal/mol]       0.00000000 [kJ/mol]
      Disp20 (SS)                  -0.00016890 [mEh]      -0.00010599 [kcal/mol]      -0.00044346 [kJ/mol]
      Disp20 (OS)                  -0.00016890 [mEh]      -0.00010599 [kcal/mol]      -0.00044346 [kJ/mol]
      Exch-Disp20 (SS)              0.00000000 [mEh]       0.00000000 [kcal/mol]       0.00000000 [kJ/mol]
      Exch-Disp20 (OS)              0.00000000 [mEh]       0.00000000 [kcal/mol]       0.00000000 [kJ/mol]

  Total HF                         -0.02241282 [mEh]      -0.01406426 [kcal/mol]      -0.05884485 [kJ/mol]
  Total SAPT0                      -0.02275063 [mEh]      -0.01427624 [kcal/mol]      -0.05973177 [kJ/mol]

  Special recipe for scaled SAPT0 (see Manual):
    Electrostatics sSAPT0          -0.02234810 [mEh]      -0.01402365 [kcal/mol]      -0.05867494 [kJ/mol]
    Exchange sSAPT0                -0.00000000 [mEh]      -0.00000000 [kcal/mol]      -0.00000000 [kJ/mol]
    Induction sSAPT0               -0.00006472 [mEh]      -0.00004061 [kcal/mol]      -0.00016991 [kJ/mol]
    Dispersion sSAPT0              -0.00033781 [mEh]      -0.00021198 [kcal/mol]      -0.00088692 [kJ/mol]
  Total sSAPT0                     -0.02275063 [mEh]      -0.01427624 [kcal/mol]      -0.05973177 [kJ/mol]
  --------------------------------------------------------------------------------------------------------

*** Psi4 exiting successfully. Buy a developer a beer!
