                               Psi4 1.4rc3

  ==> Input File <==

--------------------------------------------------------------------------
# PSI4 file produced by CrystaLattE

# Generated from:               imidazole.xyz
# Psithon input for N-mer:      2mer-0+549
# Number of atoms per monomer:  [9, 9]
# Number of replicas:           2
# COM priority:                 1.709004230916e-05
# Minimum COM separations:      20.544
# Separation priority:          2.470357701100e-05
# Minimum monomer separations:  18.170
# Cutoff priority:              7.194707182964e-07
# Nuclear repulsion energy:     361.5023636397267

memory 7 GB

molecule Dimer_0_549 {
  N           -4.29309621      -3.06837431       5.30516231
  N           -2.15847371      -2.92627296       1.72037448
  H           -0.02545587      -6.35903575       2.22046452
  H           -2.68566968      -6.53260241       6.61445954
  H           -4.74388423      -0.00609006       2.75615968
  H           -1.41045540      -2.24723147       0.00000000
  C           -1.43737991      -5.07504848       2.94065891
  C           -2.76900782      -5.14609916       5.13522880
  C           -3.85955036      -1.77728198       3.21093411
--
  N          -32.50463988      12.15677114      19.58281390
  N          -34.63926238      12.29887249      23.16760174
  H          -36.77228022       8.86610970      22.66751170
  H          -34.11206641       8.69254304      18.27351668
  H          -32.05385186      15.21905539      22.13181654
  H          -35.38728068      12.97791398      24.88797622
  C          -35.36035617      10.15009697      21.94731730
  C          -34.02872827      10.07904629      19.75274741
  C          -32.93818573      13.44786347      21.67704210
units = au
no_com
no_reorient
}

set {
  e_convergence 10
  d_convergence 10
  scf_type df
  mp2_type df
  cc_type df
  freeze_core true
}

energy('sapt0/aug-cc-pvdz')

--------------------------------------------------------------------------

  //              Dimer HF             //
    Molecular point group: c1
  Charge       = 0
  Multiplicity = 1
  Basis Set: AUG-CC-PVDZ
    Blend: AUG-CC-PVDZ
  Basis Set: (AUG-CC-PVDZ AUX)
    Blend: AUG-CC-PVDZ-JKFIT
  @DF-RHF Final Energy:  -449.68734991260561
    Total Energy =                       -449.6873499126055549
  //            Monomer A HF           //
    Molecular point group: c1
  Multiplicity = 1
  Basis Set: AUG-CC-PVDZ
    Blend: AUG-CC-PVDZ
  Basis Set: (AUG-CC-PVDZ AUX)
    Blend: AUG-CC-PVDZ-JKFIT
  @DF-RHF Final Energy:  -224.84369627859422
    Total Energy =                       -224.8436962785942228
  //            Monomer B HF           //
    Molecular point group: c1

    Geometry (in Bohr), charge = 0, multiplicity = 1:

       Center              X                  Y                   Z               Mass
    ------------   -----------------  -----------------  -----------------  -----------------
      Gh(N)          -4.293096210000    -3.068374310000     5.305162310000    14.003074004430
      Gh(N)          -2.158473710000    -2.926272960000     1.720374480000    14.003074004430
      Gh(H)          -0.025455870000    -6.359035750000     2.220464520000     1.007825032230
      Gh(H)          -2.685669680000    -6.532602410000     6.614459540000     1.007825032230
      Gh(H)          -4.743884230000    -0.006090060000     2.756159680000     1.007825032230
      Gh(H)          -1.410455400000    -2.247231470000     0.000000000000     1.007825032230
      Gh(C)          -1.437379910000    -5.075048480000     2.940658910000    12.000000000000
      Gh(C)          -2.769007820000    -5.146099160000     5.135228800000    12.000000000000
      Gh(C)          -3.859550360000    -1.777281980000     3.210934110000    12.000000000000
         N          -32.504639880000    12.156771140000    19.582813900000    14.003074004430
         N          -34.639262380000    12.298872490000    23.167601740000    14.003074004430
         H          -36.772280220000     8.866109700000    22.667511700000     1.007825032230
         H          -34.112066410000     8.692543040000    18.273516680000     1.007825032230
         H          -32.053851860000    15.219055390000    22.131816540000     1.007825032230
         H          -35.387280680000    12.977913980000    24.887976220000     1.007825032230
         C          -35.360356170000    10.150096970000    21.947317300000    12.000000000000
         C          -34.028728270000    10.079046290000    19.752747410000    12.000000000000
         C          -32.938185730000    13.447863470000    21.677042100000    12.000000000000

  Charge       = 0
  Multiplicity = 1
  Basis Set: AUG-CC-PVDZ
    Blend: AUG-CC-PVDZ
  Basis Set: (AUG-CC-PVDZ AUX)
    Blend: AUG-CC-PVDZ-JKFIT

    Orbital Energies [Eh]
    ---------------------

    Doubly Occupied:

       1A    -15.637071     2A    -15.551216     3A    -11.300916
       4A    -11.263160     5A    -11.245653     6A     -1.352867
       7A     -1.169098     8A     -1.012098     9A     -0.824390
      10A     -0.803731    11A     -0.760666    12A     -0.610096
      13A     -0.603958    14A     -0.601922    15A     -0.570942
      16A     -0.435483    17A     -0.400464    18A     -0.320685

  @DF-RHF Final Energy:  -224.84369627787569

   => Energetics <=

    Nuclear Repulsion Energy =            164.0866959502238842
    One-Electron Energy =                -628.9319562110097195
    Two-Electron Energy =                 240.0015639829101417
    Total Energy =                       -224.8436962778756936

  Dipole Moment: [D]
     X:    -2.0431      Y:     0.4150      Z:     3.3867     Total:     3.9769

    SAPT Results
  --------------------------------------------------------------------------------------------------------
    Electrostatics                  0.04273403 [mEh]       0.02681601 [kcal/mol]       0.11219817 [kJ/mol]
      Elst10,r                      0.04273403 [mEh]       0.02681601 [kcal/mol]       0.11219817 [kJ/mol]

    Exchange                        0.00000000 [mEh]       0.00000000 [kcal/mol]       0.00000000 [kJ/mol]
      Exch10                        0.00000000 [mEh]       0.00000000 [kcal/mol]       0.00000000 [kJ/mol]
      Exch10(S^2)                   0.00000000 [mEh]       0.00000000 [kcal/mol]       0.00000000 [kJ/mol]

    Induction                      -0.00009016 [mEh]      -0.00005658 [kcal/mol]      -0.00023672 [kJ/mol]
      Ind20,r                      -0.00010460 [mEh]      -0.00006564 [kcal/mol]      -0.00027463 [kJ/mol]
      Exch-Ind20,r                  0.00000000 [mEh]       0.00000000 [kcal/mol]       0.00000000 [kJ/mol]
      delta HF,r (2)                0.00001444 [mEh]       0.00000906 [kcal/mol]       0.00003791 [kJ/mol]

    Dispersion                     -0.00038142 [mEh]      -0.00023935 [kcal/mol]      -0.00100143 [kJ/mol]
      Disp20                       -0.00038142 [mEh]      -0.00023935 [kcal/mol]      -0.00100143 [kJ/mol]
      Exch-Disp20                   0.00000000 [mEh]       0.00000000 [kcal/mol]       0.00000000 [kJ/mol]
      Disp20 (SS)                  -0.00019071 [mEh]      -0.00011967 [kcal/mol]      -0.00050071 [kJ/mol]
      Disp20 (OS)                  -0.00019071 [mEh]      -0.00011967 [kcal/mol]      -0.00050071 [kJ/mol]
      Exch-Disp20 (SS)              0.00000000 [mEh]       0.00000000 [kcal/mol]       0.00000000 [kJ/mol]
      Exch-Disp20 (OS)              0.00000000 [mEh]       0.00000000 [kcal/mol]       0.00000000 [kJ/mol]

  Total HF                          0.04264386 [mEh]       0.02675943 [kcal/mol]       0.11196145 [kJ/mol]
  Total SAPT0                       0.04226244 [mEh]       0.02652008 [kcal/mol]       0.11096002 [kJ/mol]

  Special recipe for scaled SAPT0 (see Manual):
    Electrostatics sSAPT0           0.04273403 [mEh]       0.02681601 [kcal/mol]       0.11219817 [kJ/mol]
    Exchange sSAPT0                 0.00000000 [mEh]       0.00000000 [kcal/mol]       0.00000000 [kJ/mol]
    Induction sSAPT0               -0.00009016 [mEh]      -0.00005658 [kcal/mol]      -0.00023672 [kJ/mol]
    Dispersion sSAPT0              -0.00038142 [mEh]      -0.00023935 [kcal/mol]      -0.00100143 [kJ/mol]
  Total sSAPT0                      0.04226244 [mEh]       0.02652008 [kcal/mol]       0.11096002 [kJ/mol]
  --------------------------------------------------------------------------------------------------------

*** Psi4 exiting successfully. Buy a developer a beer!
