                               Psi4 1.4rc3

  ==> Input File <==

--------------------------------------------------------------------------
# PSI4 file produced by CrystaLattE

# Generated from:               imidazole.xyz
# Psithon input for N-mer:      2mer-0+384
# Number of atoms per monomer:  [9, 9]
# Number of replicas:           2
# COM priority:                 1.445887753320e-05
# Minimum COM separations:      21.721
# Separation priority:          2.337101649100e-05
# Minimum monomer separations:  18.509
# Cutoff priority:              6.681953809347e-07
# Nuclear repulsion energy:     359.7483362065434

memory 7 GB

molecule Dimer_0_384 {
  N           -4.29309621      -3.06837431       5.30516231
  N           -2.15847371      -2.92627296       1.72037448
  H           -0.02545587      -6.35903575       2.22046452
  H           -2.68566968      -6.53260241       6.61445954
  H           -4.74388423      -0.00609006       2.75615968
  H           -1.41045540      -2.24723147       0.00000000
  C           -1.43737991      -5.07504848       2.94065891
  C           -2.76900782      -5.14609916       5.13522880
  C           -3.85955036      -1.77728198       3.21093411
--
  N          -10.53872935      -1.10331554     -35.15519699
  N           -8.40410685      -1.24541690     -38.73998483
  H           -6.27108900       2.18734590     -38.23989479
  H           -8.93130282       2.36091255     -33.84589977
  H          -10.98951736      -4.16559979     -37.70419963
  H           -7.65608854      -1.92445838     -40.46035930
  C           -7.68301305       0.90335863     -37.51970039
  C           -9.01464096       0.97440931     -35.32513050
  C          -10.10518349      -2.39440787     -37.24942519
units = au
no_com
no_reorient
}

set {
  e_convergence 10
  d_convergence 10
  scf_type df
  mp2_type df
  cc_type df
  freeze_core true
}

energy('sapt0/aug-cc-pvdz')

--------------------------------------------------------------------------

  //              Dimer HF             //
    Molecular point group: c1
  Charge       = 0
  Multiplicity = 1
  Basis Set: AUG-CC-PVDZ
    Blend: AUG-CC-PVDZ
  Basis Set: (AUG-CC-PVDZ AUX)
    Blend: AUG-CC-PVDZ-JKFIT
  @DF-RHF Final Energy:  -449.68741949904529
    Total Energy =                       -449.6874194990452906
  //            Monomer A HF           //
    Molecular point group: c1
  Multiplicity = 1
  Basis Set: AUG-CC-PVDZ
    Blend: AUG-CC-PVDZ
  Basis Set: (AUG-CC-PVDZ AUX)
    Blend: AUG-CC-PVDZ-JKFIT
  @DF-RHF Final Energy:  -224.84369627744914
    Total Energy =                       -224.8436962774491406
  //            Monomer B HF           //
    Molecular point group: c1

    Geometry (in Bohr), charge = 0, multiplicity = 1:

       Center              X                  Y                   Z               Mass
    ------------   -----------------  -----------------  -----------------  -----------------
      Gh(N)          -4.293096210000    -3.068374310000     5.305162310000    14.003074004430
      Gh(N)          -2.158473710000    -2.926272960000     1.720374480000    14.003074004430
      Gh(H)          -0.025455870000    -6.359035750000     2.220464520000     1.007825032230
      Gh(H)          -2.685669680000    -6.532602410000     6.614459540000     1.007825032230
      Gh(H)          -4.743884230000    -0.006090060000     2.756159680000     1.007825032230
      Gh(H)          -1.410455400000    -2.247231470000     0.000000000000     1.007825032230
      Gh(C)          -1.437379910000    -5.075048480000     2.940658910000    12.000000000000
      Gh(C)          -2.769007820000    -5.146099160000     5.135228800000    12.000000000000
      Gh(C)          -3.859550360000    -1.777281980000     3.210934110000    12.000000000000
         N          -10.538729350000    -1.103315540000   -35.155196990000    14.003074004430
         N           -8.404106850000    -1.245416900000   -38.739984830000    14.003074004430
         H           -6.271089000000     2.187345900000   -38.239894790000     1.007825032230
         H           -8.931302820000     2.360912550000   -33.845899770000     1.007825032230
         H          -10.989517360000    -4.165599790000   -37.704199630000     1.007825032230
         H           -7.656088540000    -1.924458380000   -40.460359300000     1.007825032230
         C           -7.683013050000     0.903358630000   -37.519700390000    12.000000000000
         C           -9.014640960000     0.974409310000   -35.325130500000    12.000000000000
         C          -10.105183490000    -2.394407870000   -37.249425190000    12.000000000000

  Charge       = 0
  Multiplicity = 1
  Basis Set: AUG-CC-PVDZ
    Blend: AUG-CC-PVDZ
  Basis Set: (AUG-CC-PVDZ AUX)
    Blend: AUG-CC-PVDZ-JKFIT

    Orbital Energies [Eh]
    ---------------------

    Doubly Occupied:

       1A    -15.637071     2A    -15.551216     3A    -11.300916
       4A    -11.263160     5A    -11.245653     6A     -1.352867
       7A     -1.169098     8A     -1.012098     9A     -0.824390
      10A     -0.803731    11A     -0.760666    12A     -0.610096
      13A     -0.603958    14A     -0.601922    15A     -0.570942
      16A     -0.435483    17A     -0.400464    18A     -0.320685

  @DF-RHF Final Energy:  -224.84369627795121

   => Energetics <=

    Nuclear Repulsion Energy =            164.0866959241158440
    One-Electron Energy =                -628.9319561519655508
    Two-Electron Energy =                 240.0015639498985252
    Total Energy =                       -224.8436962779512100

  Dipole Moment: [D]
     X:     2.0431      Y:    -0.4150      Z:    -3.3867     Total:     3.9769

    SAPT Results
  --------------------------------------------------------------------------------------------------------
    Electrostatics                 -0.02687728 [mEh]      -0.01686575 [kcal/mol]      -0.07056628 [kJ/mol]
      Elst10,r                     -0.02687728 [mEh]      -0.01686575 [kcal/mol]      -0.07056628 [kJ/mol]

    Exchange                        0.00000000 [mEh]       0.00000000 [kcal/mol]       0.00000000 [kJ/mol]
      Exch10                        0.00000000 [mEh]       0.00000000 [kcal/mol]       0.00000000 [kJ/mol]
      Exch10(S^2)                   0.00000000 [mEh]       0.00000000 [kcal/mol]       0.00000000 [kJ/mol]

    Induction                      -0.00006637 [mEh]      -0.00004165 [kcal/mol]      -0.00017425 [kJ/mol]
      Ind20,r                      -0.00006257 [mEh]      -0.00003927 [kcal/mol]      -0.00016429 [kJ/mol]
      Exch-Ind20,r                  0.00000000 [mEh]       0.00000000 [kcal/mol]       0.00000000 [kJ/mol]
      delta HF,r (2)               -0.00000379 [mEh]      -0.00000238 [kcal/mol]      -0.00000996 [kJ/mol]

    Dispersion                     -0.00026568 [mEh]      -0.00016672 [kcal/mol]      -0.00069755 [kJ/mol]
      Disp20                       -0.00026568 [mEh]      -0.00016672 [kcal/mol]      -0.00069755 [kJ/mol]
      Exch-Disp20                   0.00000000 [mEh]       0.00000000 [kcal/mol]       0.00000000 [kJ/mol]
      Disp20 (SS)                  -0.00013284 [mEh]      -0.00008336 [kcal/mol]      -0.00034878 [kJ/mol]
      Disp20 (OS)                  -0.00013284 [mEh]      -0.00008336 [kcal/mol]      -0.00034878 [kJ/mol]
      Exch-Disp20 (SS)              0.00000000 [mEh]       0.00000000 [kcal/mol]       0.00000000 [kJ/mol]
      Exch-Disp20 (OS)              0.00000000 [mEh]       0.00000000 [kcal/mol]       0.00000000 [kJ/mol]

  Total HF                         -0.02694364 [mEh]      -0.01690739 [kcal/mol]      -0.07074053 [kJ/mol]
  Total SAPT0                      -0.02720933 [mEh]      -0.01707411 [kcal/mol]      -0.07143808 [kJ/mol]

  Special recipe for scaled SAPT0 (see Manual):
    Electrostatics sSAPT0          -0.02687728 [mEh]      -0.01686575 [kcal/mol]      -0.07056628 [kJ/mol]
    Exchange sSAPT0                 0.00000000 [mEh]       0.00000000 [kcal/mol]       0.00000000 [kJ/mol]
    Induction sSAPT0               -0.00006637 [mEh]      -0.00004165 [kcal/mol]      -0.00017425 [kJ/mol]
    Dispersion sSAPT0              -0.00026568 [mEh]      -0.00016672 [kcal/mol]      -0.00069755 [kJ/mol]
  Total sSAPT0                     -0.02720933 [mEh]      -0.01707411 [kcal/mol]      -0.07143808 [kJ/mol]
  --------------------------------------------------------------------------------------------------------

*** Psi4 exiting successfully. Buy a developer a beer!
