                               Psi4 1.4rc3

  ==> Input File <==

--------------------------------------------------------------------------
# PSI4 file produced by CrystaLattE

# Generated from:               imidazole.xyz
# Psithon input for N-mer:      2mer-0+453
# Number of atoms per monomer:  [9, 9]
# Number of replicas:           1
# COM priority:                 1.866462265198e-05
# Minimum COM separations:      19.949
# Separation priority:          3.357023276877e-05
# Minimum monomer separations:  16.404
# Cutoff priority:              1.082943511176e-06
# Nuclear repulsion energy:     362.6571849655322

memory 7 GB

molecule Dimer_0_453 {
  N           -4.29309621      -3.06837431       5.30516231
  N           -2.15847371      -2.92627296       1.72037448
  H           -0.02545587      -6.35903575       2.22046452
  H           -2.68566968      -6.53260241       6.61445954
  H           -4.74388423      -0.00609006       2.75615968
  H           -1.41045540      -2.24723147       0.00000000
  C           -1.43737991      -5.07504848       2.94065891
  C           -2.76900782      -5.14609916       5.13522880
  C           -3.85955036      -1.77728198       3.21093411
--
  N           14.96239035     -36.62865492      11.49074204
  N           12.82776785     -36.77075628      15.07552988
  H           10.69475001     -33.33799348      14.57543984
  H           13.35496382     -33.16442682      10.18144482
  H           15.41317837     -39.69093917      14.03974468
  H           12.07974955     -37.44979776      16.79590435
  C           12.10667405     -34.62198075      13.85524544
  C           13.43830196     -34.55093007      11.66067555
  C           14.52884450     -37.91974725      13.58497024
units = au
no_com
no_reorient
}

set {
  e_convergence 10
  d_convergence 10
  scf_type df
  mp2_type df
  cc_type df
  freeze_core true
}

energy('sapt0/aug-cc-pvdz')

--------------------------------------------------------------------------

  //              Dimer HF             //
    Molecular point group: c1
  Charge       = 0
  Multiplicity = 1
  Basis Set: AUG-CC-PVDZ
    Blend: AUG-CC-PVDZ
  Basis Set: (AUG-CC-PVDZ AUX)
    Blend: AUG-CC-PVDZ-JKFIT
  @DF-RHF Final Energy:  -449.68742667015175
    Total Energy =                       -449.6874266701516945
  //            Monomer A HF           //
    Molecular point group: c1
  Multiplicity = 1
  Basis Set: AUG-CC-PVDZ
    Blend: AUG-CC-PVDZ
  Basis Set: (AUG-CC-PVDZ AUX)
    Blend: AUG-CC-PVDZ-JKFIT
  @DF-RHF Final Energy:  -224.84369627774910
    Total Energy =                       -224.8436962777491033
  //            Monomer B HF           //
    Molecular point group: c1

    Geometry (in Bohr), charge = 0, multiplicity = 1:

       Center              X                  Y                   Z               Mass
    ------------   -----------------  -----------------  -----------------  -----------------
      Gh(N)          -4.293096210000    -3.068374310000     5.305162310000    14.003074004430
      Gh(N)          -2.158473710000    -2.926272960000     1.720374480000    14.003074004430
      Gh(H)          -0.025455870000    -6.359035750000     2.220464520000     1.007825032230
      Gh(H)          -2.685669680000    -6.532602410000     6.614459540000     1.007825032230
      Gh(H)          -4.743884230000    -0.006090060000     2.756159680000     1.007825032230
      Gh(H)          -1.410455400000    -2.247231470000     0.000000000000     1.007825032230
      Gh(C)          -1.437379910000    -5.075048480000     2.940658910000    12.000000000000
      Gh(C)          -2.769007820000    -5.146099160000     5.135228800000    12.000000000000
      Gh(C)          -3.859550360000    -1.777281980000     3.210934110000    12.000000000000
         N           14.962390350000   -36.628654920000    11.490742040000    14.003074004430
         N           12.827767850000   -36.770756280000    15.075529880000    14.003074004430
         H           10.694750010000   -33.337993480000    14.575439840000     1.007825032230
         H           13.354963820000   -33.164426820000    10.181444820000     1.007825032230
         H           15.413178370000   -39.690939170000    14.039744680000     1.007825032230
         H           12.079749550000   -37.449797760000    16.795904350000     1.007825032230
         C           12.106674050000   -34.621980750000    13.855245440000    12.000000000000
         C           13.438301960000   -34.550930070000    11.660675550000    12.000000000000
         C           14.528844500000   -37.919747250000    13.584970240000    12.000000000000

  Charge       = 0
  Multiplicity = 1
  Basis Set: AUG-CC-PVDZ
    Blend: AUG-CC-PVDZ
  Basis Set: (AUG-CC-PVDZ AUX)
    Blend: AUG-CC-PVDZ-JKFIT

    Orbital Energies [Eh]
    ---------------------

    Doubly Occupied:

       1A    -15.637071     2A    -15.551216     3A    -11.300916
       4A    -11.263160     5A    -11.245653     6A     -1.352867
       7A     -1.169098     8A     -1.012098     9A     -0.824390
      10A     -0.803731    11A     -0.760666    12A     -0.610096
      13A     -0.603958    14A     -0.601922    15A     -0.570942
      16A     -0.435483    17A     -0.400464    18A     -0.320685

  @DF-RHF Final Energy:  -224.84369627803585

   => Energetics <=

    Nuclear Repulsion Energy =            164.0866958745601778
    One-Electron Energy =                -628.9319560597036798
    Two-Electron Energy =                 240.0015639071076521
    Total Energy =                       -224.8436962780358499

  Dipole Moment: [D]
     X:    -2.0431      Y:    -0.4150      Z:     3.3867     Total:     3.9769

    SAPT Results
  --------------------------------------------------------------------------------------------------------
    Electrostatics                 -0.03408803 [mEh]      -0.02139056 [kcal/mol]      -0.08949811 [kJ/mol]
      Elst10,r                     -0.03408803 [mEh]      -0.02139056 [kcal/mol]      -0.08949811 [kJ/mol]

    Exchange                        0.00000000 [mEh]       0.00000000 [kcal/mol]       0.00000000 [kJ/mol]
      Exch10                        0.00000000 [mEh]       0.00000000 [kcal/mol]       0.00000000 [kJ/mol]
      Exch10(S^2)                   0.00000000 [mEh]       0.00000000 [kcal/mol]       0.00000000 [kJ/mol]

    Induction                      -0.00002634 [mEh]      -0.00001653 [kcal/mol]      -0.00006914 [kJ/mol]
      Ind20,r                      -0.00003794 [mEh]      -0.00002381 [kcal/mol]      -0.00009961 [kJ/mol]
      Exch-Ind20,r                  0.00000000 [mEh]       0.00000000 [kcal/mol]       0.00000000 [kJ/mol]
      delta HF,r (2)                0.00001160 [mEh]       0.00000728 [kcal/mol]       0.00003046 [kJ/mol]

    Dispersion                     -0.00052343 [mEh]      -0.00032845 [kcal/mol]      -0.00137425 [kJ/mol]
      Disp20                       -0.00052343 [mEh]      -0.00032845 [kcal/mol]      -0.00137425 [kJ/mol]
      Exch-Disp20                   0.00000000 [mEh]       0.00000000 [kcal/mol]       0.00000000 [kJ/mol]
      Disp20 (SS)                  -0.00026171 [mEh]      -0.00016423 [kcal/mol]      -0.00068713 [kJ/mol]
      Disp20 (OS)                  -0.00026171 [mEh]      -0.00016423 [kcal/mol]      -0.00068713 [kJ/mol]
      Exch-Disp20 (SS)              0.00000000 [mEh]       0.00000000 [kcal/mol]       0.00000000 [kJ/mol]
      Exch-Disp20 (OS)              0.00000000 [mEh]       0.00000000 [kcal/mol]       0.00000000 [kJ/mol]

  Total HF                         -0.03411437 [mEh]      -0.02140709 [kcal/mol]      -0.08956726 [kJ/mol]
  Total SAPT0                      -0.03463779 [mEh]      -0.02173554 [kcal/mol]      -0.09094151 [kJ/mol]

  Special recipe for scaled SAPT0 (see Manual):
    Electrostatics sSAPT0          -0.03408803 [mEh]      -0.02139056 [kcal/mol]      -0.08949811 [kJ/mol]
    Exchange sSAPT0                 0.00000000 [mEh]       0.00000000 [kcal/mol]       0.00000000 [kJ/mol]
    Induction sSAPT0               -0.00002634 [mEh]      -0.00001653 [kcal/mol]      -0.00006914 [kJ/mol]
    Dispersion sSAPT0              -0.00052343 [mEh]      -0.00032845 [kcal/mol]      -0.00137425 [kJ/mol]
  Total sSAPT0                     -0.03463779 [mEh]      -0.02173554 [kcal/mol]      -0.09094151 [kJ/mol]
  --------------------------------------------------------------------------------------------------------

*** Psi4 exiting successfully. Buy a developer a beer!
