                               Psi4 1.4rc3

  ==> Input File <==

--------------------------------------------------------------------------
# PSI4 file produced by CrystaLattE

# Generated from:               imidazole.xyz
# Psithon input for N-mer:      2mer-0+578
# Number of atoms per monomer:  [9, 9]
# Number of replicas:           1
# COM priority:                 1.134955303483e-05
# Minimum COM separations:      23.547
# Separation priority:          2.053624520114e-05
# Minimum monomer separations:  19.324
# Cutoff priority:              5.623776528683e-07
# Nuclear repulsion energy:     357.3892564528531

memory 7 GB

molecule Dimer_0_578 {
  N           -4.29309621      -3.06837431       5.30516231
  N           -2.15847371      -2.92627296       1.72037448
  H           -0.02545587      -6.35903575       2.22046452
  H           -2.68566968      -6.53260241       6.61445954
  H           -4.74388423      -0.00609006       2.75615968
  H           -1.41045540      -2.24723147       0.00000000
  C           -1.43737991      -5.07504848       2.94065891
  C           -2.76900782      -5.14609916       5.13522880
  C           -3.85955036      -1.77728198       3.21093411
--
  N           18.56285270     -36.62865492     -20.87754540
  N           16.42823020     -36.77075628     -17.29275757
  H           14.29521236     -33.33799348     -17.79284761
  H           16.95542617     -33.16442682     -22.18684263
  H           19.01364072     -39.69093917     -18.32854276
  H           15.68021189     -37.44979776     -15.57238309
  C           15.70713640     -34.62198075     -18.51304200
  C           17.03876431     -34.55093007     -20.70761189
  C           18.12930685     -37.91974725     -18.78331720
units = au
no_com
no_reorient
}

set {
  e_convergence 10
  d_convergence 10
  scf_type df
  mp2_type df
  cc_type df
  freeze_core true
}

energy('sapt0/aug-cc-pvdz')

--------------------------------------------------------------------------

  //              Dimer HF             //
    Molecular point group: c1
  Charge       = 0
  Multiplicity = 1
  Basis Set: AUG-CC-PVDZ
    Blend: AUG-CC-PVDZ
  Basis Set: (AUG-CC-PVDZ AUX)
    Blend: AUG-CC-PVDZ-JKFIT
  @DF-RHF Final Energy:  -449.68739128869890
    Total Energy =                       -449.6873912886989046
  //            Monomer A HF           //
    Molecular point group: c1
  Multiplicity = 1
  Basis Set: AUG-CC-PVDZ
    Blend: AUG-CC-PVDZ
  Basis Set: (AUG-CC-PVDZ AUX)
    Blend: AUG-CC-PVDZ-JKFIT
  @DF-RHF Final Energy:  -224.84369627650278
    Total Energy =                       -224.8436962765027829
  //            Monomer B HF           //
    Molecular point group: c1

    Geometry (in Bohr), charge = 0, multiplicity = 1:

       Center              X                  Y                   Z               Mass
    ------------   -----------------  -----------------  -----------------  -----------------
      Gh(N)          -4.293096210000    -3.068374310000     5.305162310000    14.003074004430
      Gh(N)          -2.158473710000    -2.926272960000     1.720374480000    14.003074004430
      Gh(H)          -0.025455870000    -6.359035750000     2.220464520000     1.007825032230
      Gh(H)          -2.685669680000    -6.532602410000     6.614459540000     1.007825032230
      Gh(H)          -4.743884230000    -0.006090060000     2.756159680000     1.007825032230
      Gh(H)          -1.410455400000    -2.247231470000     0.000000000000     1.007825032230
      Gh(C)          -1.437379910000    -5.075048480000     2.940658910000    12.000000000000
      Gh(C)          -2.769007820000    -5.146099160000     5.135228800000    12.000000000000
      Gh(C)          -3.859550360000    -1.777281980000     3.210934110000    12.000000000000
         N           18.562852700000   -36.628654920000   -20.877545400000    14.003074004430
         N           16.428230200000   -36.770756280000   -17.292757570000    14.003074004430
         H           14.295212360000   -33.337993480000   -17.792847610000     1.007825032230
         H           16.955426170000   -33.164426820000   -22.186842630000     1.007825032230
         H           19.013640720000   -39.690939170000   -18.328542760000     1.007825032230
         H           15.680211890000   -37.449797760000   -15.572383090000     1.007825032230
         C           15.707136400000   -34.621980750000   -18.513042000000    12.000000000000
         C           17.038764310000   -34.550930070000   -20.707611890000    12.000000000000
         C           18.129306850000   -37.919747250000   -18.783317200000    12.000000000000

  Charge       = 0
  Multiplicity = 1
  Basis Set: AUG-CC-PVDZ
    Blend: AUG-CC-PVDZ
  Basis Set: (AUG-CC-PVDZ AUX)
    Blend: AUG-CC-PVDZ-JKFIT

    Orbital Energies [Eh]
    ---------------------

    Doubly Occupied:

       1A    -15.637071     2A    -15.551216     3A    -11.300916
       4A    -11.263160     5A    -11.245653     6A     -1.352867
       7A     -1.169098     8A     -1.012098     9A     -0.824390
      10A     -0.803731    11A     -0.760666    12A     -0.610096
      13A     -0.603958    14A     -0.601922    15A     -0.570942
      16A     -0.435483    17A     -0.400464    18A     -0.320685

  @DF-RHF Final Energy:  -224.84369627824515

   => Energetics <=

    Nuclear Repulsion Energy =            164.0866959554951450
    One-Electron Energy =                -628.9319562207681429
    Two-Electron Energy =                 240.0015639870278505
    Total Energy =                       -224.8436962782451474

  Dipole Moment: [D]
     X:    -2.0431      Y:    -0.4150      Z:     3.3867     Total:     3.9769

    SAPT Results
  --------------------------------------------------------------------------------------------------------
    Electrostatics                  0.00129993 [mEh]       0.00081572 [kcal/mol]       0.00341298 [kJ/mol]
      Elst10,r                      0.00129993 [mEh]       0.00081572 [kcal/mol]       0.00341298 [kJ/mol]

    Exchange                        0.00000000 [mEh]       0.00000000 [kcal/mol]       0.00000000 [kJ/mol]
      Exch10                        0.00000000 [mEh]       0.00000000 [kcal/mol]       0.00000000 [kJ/mol]
      Exch10(S^2)                   0.00000000 [mEh]       0.00000000 [kcal/mol]       0.00000000 [kJ/mol]

    Induction                      -0.00003389 [mEh]      -0.00002126 [kcal/mol]      -0.00008897 [kJ/mol]
      Ind20,r                      -0.00003123 [mEh]      -0.00001960 [kcal/mol]      -0.00008199 [kJ/mol]
      Exch-Ind20,r                  0.00000000 [mEh]       0.00000000 [kcal/mol]       0.00000000 [kJ/mol]
      delta HF,r (2)               -0.00000265 [mEh]      -0.00000167 [kcal/mol]      -0.00000697 [kJ/mol]

    Dispersion                     -0.00018325 [mEh]      -0.00011499 [kcal/mol]      -0.00048112 [kJ/mol]
      Disp20                       -0.00018325 [mEh]      -0.00011499 [kcal/mol]      -0.00048112 [kJ/mol]
      Exch-Disp20                   0.00000000 [mEh]       0.00000000 [kcal/mol]       0.00000000 [kJ/mol]
      Disp20 (SS)                  -0.00009162 [mEh]      -0.00005750 [kcal/mol]      -0.00024056 [kJ/mol]
      Disp20 (OS)                  -0.00009162 [mEh]      -0.00005750 [kcal/mol]      -0.00024056 [kJ/mol]
      Exch-Disp20 (SS)              0.00000000 [mEh]       0.00000000 [kcal/mol]       0.00000000 [kJ/mol]
      Exch-Disp20 (OS)              0.00000000 [mEh]       0.00000000 [kcal/mol]       0.00000000 [kJ/mol]

  Total HF                          0.00126605 [mEh]       0.00079446 [kcal/mol]       0.00332401 [kJ/mol]
  Total SAPT0                       0.00108280 [mEh]       0.00067947 [kcal/mol]       0.00284289 [kJ/mol]

  Special recipe for scaled SAPT0 (see Manual):
    Electrostatics sSAPT0           0.00129993 [mEh]       0.00081572 [kcal/mol]       0.00341298 [kJ/mol]
    Exchange sSAPT0                 0.00000000 [mEh]       0.00000000 [kcal/mol]       0.00000000 [kJ/mol]
    Induction sSAPT0               -0.00003389 [mEh]      -0.00002126 [kcal/mol]      -0.00008897 [kJ/mol]
    Dispersion sSAPT0              -0.00018325 [mEh]      -0.00011499 [kcal/mol]      -0.00048112 [kJ/mol]
  Total sSAPT0                      0.00108280 [mEh]       0.00067947 [kcal/mol]       0.00284289 [kJ/mol]
  --------------------------------------------------------------------------------------------------------

*** Psi4 exiting successfully. Buy a developer a beer!
