                               Psi4 1.4rc3

  ==> Input File <==

--------------------------------------------------------------------------
# PSI4 file produced by CrystaLattE

# Generated from:               imidazole.xyz
# Psithon input for N-mer:      2mer-0+178
# Number of atoms per monomer:  [9, 9]
# Number of replicas:           2
# COM priority:                 2.356639930256e-05
# Minimum COM separations:      18.457
# Separation priority:          4.160758154761e-05
# Minimum monomer separations:  15.271
# Cutoff priority:              1.441772145021e-06
# Nuclear repulsion energy:     365.33517566748947

memory 7 GB

molecule Dimer_0_178 {
  N           -4.29309621      -3.06837431       5.30516231
  N           -2.15847371      -2.92627296       1.72037448
  H           -0.02545587      -6.35903575       2.22046452
  H           -2.68566968      -6.53260241       6.61445954
  H           -4.74388423      -0.00609006       2.75615968
  H           -1.41045540      -2.24723147       0.00000000
  C           -1.43737991      -5.07504848       2.94065891
  C           -2.76900782      -5.14609916       5.13522880
  C           -3.85955036      -1.77728198       3.21093411
--
  N           18.99955711      17.23181962     -10.87898141
  N           21.13417961      17.37392098     -14.46376924
  H           23.26719745      13.94115818     -13.96367920
  H           20.60698364      13.76759152      -9.56968418
  H           18.54876909      20.29410387     -13.42798405
  H           21.88219791      18.05296246     -16.18414372
  C           21.85527340      15.22514545     -13.24348481
  C           20.52364550      15.15409477     -11.04891492
  C           19.43310296      18.52291195     -12.97320961
units = au
no_com
no_reorient
}

set {
  e_convergence 10
  d_convergence 10
  scf_type df
  mp2_type df
  cc_type df
  freeze_core true
}

energy('sapt0/aug-cc-pvdz')

--------------------------------------------------------------------------

  //              Dimer HF             //
    Molecular point group: c1
  Charge       = 0
  Multiplicity = 1
  Basis Set: AUG-CC-PVDZ
    Blend: AUG-CC-PVDZ
  Basis Set: (AUG-CC-PVDZ AUX)
    Blend: AUG-CC-PVDZ-JKFIT
  @DF-RHF Final Energy:  -449.68744511290868
    Total Energy =                       -449.6874451129086765
  //            Monomer A HF           //
    Molecular point group: c1
  Multiplicity = 1
  Basis Set: AUG-CC-PVDZ
    Blend: AUG-CC-PVDZ
  Basis Set: (AUG-CC-PVDZ AUX)
    Blend: AUG-CC-PVDZ-JKFIT
  @DF-RHF Final Energy:  -224.84369627856887
    Total Energy =                       -224.8436962785688706
  //            Monomer B HF           //
    Molecular point group: c1

    Geometry (in Bohr), charge = 0, multiplicity = 1:

       Center              X                  Y                   Z               Mass
    ------------   -----------------  -----------------  -----------------  -----------------
      Gh(N)          -4.293096210000    -3.068374310000     5.305162310000    14.003074004430
      Gh(N)          -2.158473710000    -2.926272960000     1.720374480000    14.003074004430
      Gh(H)          -0.025455870000    -6.359035750000     2.220464520000     1.007825032230
      Gh(H)          -2.685669680000    -6.532602410000     6.614459540000     1.007825032230
      Gh(H)          -4.743884230000    -0.006090060000     2.756159680000     1.007825032230
      Gh(H)          -1.410455400000    -2.247231470000     0.000000000000     1.007825032230
      Gh(C)          -1.437379910000    -5.075048480000     2.940658910000    12.000000000000
      Gh(C)          -2.769007820000    -5.146099160000     5.135228800000    12.000000000000
      Gh(C)          -3.859550360000    -1.777281980000     3.210934110000    12.000000000000
         N           18.999557110000    17.231819620000   -10.878981410000    14.003074004430
         N           21.134179610000    17.373920980000   -14.463769240000    14.003074004430
         H           23.267197450000    13.941158180000   -13.963679200000     1.007825032230
         H           20.606983640000    13.767591520000    -9.569684180000     1.007825032230
         H           18.548769090000    20.294103870000   -13.427984050000     1.007825032230
         H           21.882197910000    18.052962460000   -16.184143720000     1.007825032230
         C           21.855273400000    15.225145450000   -13.243484810000    12.000000000000
         C           20.523645500000    15.154094770000   -11.048914920000    12.000000000000
         C           19.433102960000    18.522911950000   -12.973209610000    12.000000000000

  Charge       = 0
  Multiplicity = 1
  Basis Set: AUG-CC-PVDZ
    Blend: AUG-CC-PVDZ
  Basis Set: (AUG-CC-PVDZ AUX)
    Blend: AUG-CC-PVDZ-JKFIT

    Orbital Energies [Eh]
    ---------------------

    Doubly Occupied:

       1A    -15.637071     2A    -15.551216     3A    -11.300916
       4A    -11.263160     5A    -11.245653     6A     -1.352867
       7A     -1.169098     8A     -1.012098     9A     -0.824390
      10A     -0.803731    11A     -0.760666    12A     -0.610096
      13A     -0.603958    14A     -0.601922    15A     -0.570942
      16A     -0.435483    17A     -0.400464    18A     -0.320685

  @DF-RHF Final Energy:  -224.84369627933583

   => Energetics <=

    Nuclear Repulsion Energy =            164.0866960324114530
    One-Electron Energy =                -628.9319563748833843
    Two-Electron Energy =                 240.0015640631361009
    Total Energy =                       -224.8436962793358305

  Dipole Moment: [D]
     X:     2.0431      Y:     0.4150      Z:    -3.3867     Total:     3.9769

    SAPT Results
  --------------------------------------------------------------------------------------------------------
    Electrostatics                 -0.05238102 [mEh]      -0.03286959 [kcal/mol]      -0.13752635 [kJ/mol]
      Elst10,r                     -0.05238102 [mEh]      -0.03286959 [kcal/mol]      -0.13752635 [kJ/mol]

    Exchange                        0.00000000 [mEh]       0.00000000 [kcal/mol]       0.00000000 [kJ/mol]
      Exch10                        0.00000000 [mEh]       0.00000000 [kcal/mol]       0.00000000 [kJ/mol]
      Exch10(S^2)                   0.00000000 [mEh]       0.00000000 [kcal/mol]       0.00000000 [kJ/mol]

    Induction                      -0.00017398 [mEh]      -0.00010918 [kcal/mol]      -0.00045679 [kJ/mol]
      Ind20,r                      -0.00016862 [mEh]      -0.00010581 [kcal/mol]      -0.00044271 [kJ/mol]
      Exch-Ind20,r                  0.00000000 [mEh]       0.00000000 [kcal/mol]       0.00000000 [kJ/mol]
      delta HF,r (2)               -0.00000536 [mEh]      -0.00000337 [kcal/mol]      -0.00001408 [kJ/mol]

    Dispersion                     -0.00071324 [mEh]      -0.00044756 [kcal/mol]      -0.00187261 [kJ/mol]
      Disp20                       -0.00071324 [mEh]      -0.00044756 [kcal/mol]      -0.00187261 [kJ/mol]
      Exch-Disp20                   0.00000000 [mEh]       0.00000000 [kcal/mol]       0.00000000 [kJ/mol]
      Disp20 (SS)                  -0.00035662 [mEh]      -0.00022378 [kcal/mol]      -0.00093630 [kJ/mol]
      Disp20 (OS)                  -0.00035662 [mEh]      -0.00022378 [kcal/mol]      -0.00093630 [kJ/mol]
      Exch-Disp20 (SS)              0.00000000 [mEh]       0.00000000 [kcal/mol]       0.00000000 [kJ/mol]
      Exch-Disp20 (OS)              0.00000000 [mEh]       0.00000000 [kcal/mol]       0.00000000 [kJ/mol]

  Total HF                         -0.05255500 [mEh]      -0.03297876 [kcal/mol]      -0.13798314 [kJ/mol]
  Total SAPT0                      -0.05326824 [mEh]      -0.03342633 [kcal/mol]      -0.13985575 [kJ/mol]

  Special recipe for scaled SAPT0 (see Manual):
    Electrostatics sSAPT0          -0.05238102 [mEh]      -0.03286959 [kcal/mol]      -0.13752635 [kJ/mol]
    Exchange sSAPT0                 0.00000000 [mEh]       0.00000000 [kcal/mol]       0.00000000 [kJ/mol]
    Induction sSAPT0               -0.00017398 [mEh]      -0.00010918 [kcal/mol]      -0.00045679 [kJ/mol]
    Dispersion sSAPT0              -0.00071324 [mEh]      -0.00044756 [kcal/mol]      -0.00187261 [kJ/mol]
  Total sSAPT0                     -0.05326824 [mEh]      -0.03342633 [kcal/mol]      -0.13985575 [kJ/mol]
  --------------------------------------------------------------------------------------------------------

*** Psi4 exiting successfully. Buy a developer a beer!
