                               Psi4 1.4rc3

  ==> Input File <==

--------------------------------------------------------------------------
# PSI4 file produced by CrystaLattE

# Generated from:               imidazole.xyz
# Psithon input for N-mer:      2mer-0+144
# Number of atoms per monomer:  [9, 9]
# Number of replicas:           2
# COM priority:                 4.842150158191e-05
# Minimum COM separations:      14.518
# Separation priority:          9.628763615208e-05
# Minimum monomer separations:  11.545
# Cutoff priority:              4.413272052110e-06
# Nuclear repulsion energy:     375.3901953857757

memory 7 GB

molecule Dimer_0_144 {
  N           -4.29309621      -3.06837431       5.30516231
  N           -2.15847371      -2.92627296       1.72037448
  H           -0.02545587      -6.35903575       2.22046452
  H           -2.68566968      -6.53260241       6.61445954
  H           -4.74388423      -0.00609006       2.75615968
  H           -1.41045540      -2.24723147       0.00000000
  C           -1.43737991      -5.07504848       2.94065891
  C           -2.76900782      -5.14609916       5.13522880
  C           -3.85955036      -1.77728198       3.21093411
--
  N          -23.98528718       7.08172265     -10.87898141
  N          -21.85066468       7.22382401     -14.46376924
  H          -19.71764684       3.79106122     -13.96367920
  H          -22.37786065       3.61749456      -9.56968418
  H          -24.43607519      10.14400691     -13.42798405
  H          -21.10264637       7.90286550     -16.18414372
  C          -21.12957088       5.07504848     -13.24348481
  C          -22.46119879       5.00399780     -11.04891492
  C          -23.55174133       8.37281499     -12.97320961
units = au
no_com
no_reorient
}

set {
  e_convergence 10
  d_convergence 10
  scf_type df
  mp2_type df
  cc_type df
  freeze_core true
}

energy('sapt0/aug-cc-pvdz')

--------------------------------------------------------------------------

  //              Dimer HF             //
    Molecular point group: c1
  Charge       = 0
  Multiplicity = 1
  Basis Set: AUG-CC-PVDZ
    Blend: AUG-CC-PVDZ
  Basis Set: (AUG-CC-PVDZ AUX)
    Blend: AUG-CC-PVDZ-JKFIT
  @DF-RHF Final Energy:  -449.68730202393749
    Total Energy =                       -449.6873020239374910
  //            Monomer A HF           //
    Molecular point group: c1
  Multiplicity = 1
  Basis Set: AUG-CC-PVDZ
    Blend: AUG-CC-PVDZ
  Basis Set: (AUG-CC-PVDZ AUX)
    Blend: AUG-CC-PVDZ-JKFIT
  @DF-RHF Final Energy:  -224.84369629459675
    Total Energy =                       -224.8436962945967537
  //            Monomer B HF           //
    Molecular point group: c1

    Geometry (in Bohr), charge = 0, multiplicity = 1:

       Center              X                  Y                   Z               Mass
    ------------   -----------------  -----------------  -----------------  -----------------
      Gh(N)          -4.293096210000    -3.068374310000     5.305162310000    14.003074004430
      Gh(N)          -2.158473710000    -2.926272960000     1.720374480000    14.003074004430
      Gh(H)          -0.025455870000    -6.359035750000     2.220464520000     1.007825032230
      Gh(H)          -2.685669680000    -6.532602410000     6.614459540000     1.007825032230
      Gh(H)          -4.743884230000    -0.006090060000     2.756159680000     1.007825032230
      Gh(H)          -1.410455400000    -2.247231470000     0.000000000000     1.007825032230
      Gh(C)          -1.437379910000    -5.075048480000     2.940658910000    12.000000000000
      Gh(C)          -2.769007820000    -5.146099160000     5.135228800000    12.000000000000
      Gh(C)          -3.859550360000    -1.777281980000     3.210934110000    12.000000000000
         N          -23.985287180000     7.081722650000   -10.878981410000    14.003074004430
         N          -21.850664680000     7.223824010000   -14.463769240000    14.003074004430
         H          -19.717646840000     3.791061220000   -13.963679200000     1.007825032230
         H          -22.377860650000     3.617494560000    -9.569684180000     1.007825032230
         H          -24.436075190000    10.144006910000   -13.427984050000     1.007825032230
         H          -21.102646370000     7.902865500000   -16.184143720000     1.007825032230
         C          -21.129570880000     5.075048480000   -13.243484810000    12.000000000000
         C          -22.461198790000     5.003997800000   -11.048914920000    12.000000000000
         C          -23.551741330000     8.372814990000   -12.973209610000    12.000000000000

  Charge       = 0
  Multiplicity = 1
  Basis Set: AUG-CC-PVDZ
    Blend: AUG-CC-PVDZ
  Basis Set: (AUG-CC-PVDZ AUX)
    Blend: AUG-CC-PVDZ-JKFIT

    Orbital Energies [Eh]
    ---------------------

    Doubly Occupied:

       1A    -15.637071     2A    -15.551216     3A    -11.300916
       4A    -11.263160     5A    -11.245653     6A     -1.352867
       7A     -1.169098     8A     -1.012098     9A     -0.824390
      10A     -0.803731    11A     -0.760666    12A     -0.610096
      13A     -0.603958    14A     -0.601922    15A     -0.570942
      16A     -0.435483    17A     -0.400464    18A     -0.320685

  @DF-RHF Final Energy:  -224.84369629665562

   => Energetics <=

    Nuclear Repulsion Energy =            164.0866958786657506
    One-Electron Energy =                -628.9319562703897191
    Two-Electron Energy =                 240.0015640950683462
    Total Energy =                       -224.8436962966556223

  Dipole Moment: [D]
     X:     2.0431      Y:     0.4150      Z:    -3.3867     Total:     3.9769

    SAPT Results
  --------------------------------------------------------------------------------------------------------
    Electrostatics                  0.09089676 [mEh]       0.05703858 [kcal/mol]       0.23864941 [kJ/mol]
      Elst10,r                      0.09089676 [mEh]       0.05703858 [kcal/mol]       0.23864941 [kJ/mol]

    Exchange                        0.00000001 [mEh]       0.00000000 [kcal/mol]       0.00000002 [kJ/mol]
      Exch10                        0.00000001 [mEh]       0.00000000 [kcal/mol]       0.00000002 [kJ/mol]
      Exch10(S^2)                   0.00000001 [mEh]       0.00000000 [kcal/mol]       0.00000002 [kJ/mol]

    Induction                      -0.00032945 [mEh]      -0.00020673 [kcal/mol]      -0.00086498 [kJ/mol]
      Ind20,r                      -0.00034055 [mEh]      -0.00021370 [kcal/mol]      -0.00089412 [kJ/mol]
      Exch-Ind20,r                  0.00000002 [mEh]       0.00000001 [kcal/mol]       0.00000006 [kJ/mol]
      delta HF,r (2)                0.00001108 [mEh]       0.00000695 [kcal/mol]       0.00002909 [kJ/mol]

    Dispersion                     -0.00305636 [mEh]      -0.00191789 [kcal/mol]      -0.00802447 [kJ/mol]
      Disp20                       -0.00305636 [mEh]      -0.00191790 [kcal/mol]      -0.00802447 [kJ/mol]
      Exch-Disp20                   0.00000000 [mEh]       0.00000000 [kcal/mol]       0.00000001 [kJ/mol]
      Disp20 (SS)                  -0.00152818 [mEh]      -0.00095895 [kcal/mol]      -0.00401224 [kJ/mol]
      Disp20 (OS)                  -0.00152818 [mEh]      -0.00095895 [kcal/mol]      -0.00401224 [kJ/mol]
      Exch-Disp20 (SS)              0.00000000 [mEh]       0.00000000 [kcal/mol]       0.00000000 [kJ/mol]
      Exch-Disp20 (OS)              0.00000000 [mEh]       0.00000000 [kcal/mol]       0.00000000 [kJ/mol]

  Total HF                          0.09056731 [mEh]       0.05683185 [kcal/mol]       0.23778445 [kJ/mol]
  Total SAPT0                       0.08751096 [mEh]       0.05491395 [kcal/mol]       0.22975998 [kJ/mol]

  Special recipe for scaled SAPT0 (see Manual):
    Electrostatics sSAPT0           0.09089676 [mEh]       0.05703858 [kcal/mol]       0.23864941 [kJ/mol]
    Exchange sSAPT0                 0.00000001 [mEh]       0.00000000 [kcal/mol]       0.00000002 [kJ/mol]
    Induction sSAPT0               -0.00032945 [mEh]      -0.00020673 [kcal/mol]      -0.00086498 [kJ/mol]
    Dispersion sSAPT0              -0.00305636 [mEh]      -0.00191789 [kcal/mol]      -0.00802447 [kJ/mol]
  Total sSAPT0                      0.08751096 [mEh]       0.05491395 [kcal/mol]       0.22975998 [kJ/mol]
  --------------------------------------------------------------------------------------------------------

*** Psi4 exiting successfully. Buy a developer a beer!
