                               Psi4 1.4rc3

  ==> Input File <==

--------------------------------------------------------------------------
# PSI4 file produced by CrystaLattE

# Generated from:               imidazole.xyz
# Psithon input for N-mer:      2mer-0+347
# Number of atoms per monomer:  [9, 9]
# Number of replicas:           1
# COM priority:                 1.973516876451e-05
# Minimum COM separations:      19.582
# Separation priority:          2.139192667642e-05
# Minimum monomer separations:  19.063
# Cutoff priority:              5.938360176235e-07
# Nuclear repulsion energy:     363.0792386594261

memory 7 GB

molecule Dimer_0_347 {
  N           -4.29309621      -3.06837431       5.30516231
  N           -2.15847371      -2.92627296       1.72037448
  H           -0.02545587      -6.35903575       2.22046452
  H           -2.68566968      -6.53260241       6.61445954
  H           -4.74388423      -0.00609006       2.75615968
  H           -1.41045540      -2.24723147       0.00000000
  C           -1.43737991      -5.07504848       2.94065891
  C           -2.76900782      -5.14609916       5.13522880
  C           -3.85955036      -1.77728198       3.21093411
--
  N           29.29067178      14.12182991      11.49074204
  N           27.15604928      13.97972855      15.07552988
  H           25.02303144      17.41249134      14.57543984
  H           27.68324525      17.58605800      10.18144482
  H           29.74145980      11.05954565      14.03974468
  H           26.40803097      13.30068706      16.79590435
  C           26.43495548      16.12850408      13.85524544
  C           27.76658339      16.19955476      11.66067555
  C           28.85712593      12.83073757      13.58497024
units = au
no_com
no_reorient
}

set {
  e_convergence 10
  d_convergence 10
  scf_type df
  mp2_type df
  cc_type df
  freeze_core true
}

energy('sapt0/aug-cc-pvdz')

--------------------------------------------------------------------------

  //              Dimer HF             //
    Molecular point group: c1
  Charge       = 0
  Multiplicity = 1
  Basis Set: AUG-CC-PVDZ
    Blend: AUG-CC-PVDZ
  Basis Set: (AUG-CC-PVDZ AUX)
    Blend: AUG-CC-PVDZ-JKFIT
  @DF-RHF Final Energy:  -449.68743827038099
    Total Energy =                       -449.6874382703809943
  //            Monomer A HF           //
    Molecular point group: c1
  Multiplicity = 1
  Basis Set: AUG-CC-PVDZ
    Blend: AUG-CC-PVDZ
  Basis Set: (AUG-CC-PVDZ AUX)
    Blend: AUG-CC-PVDZ-JKFIT
  @DF-RHF Final Energy:  -224.84369627842892
    Total Energy =                       -224.8436962784289221
  //            Monomer B HF           //
    Molecular point group: c1

    Geometry (in Bohr), charge = 0, multiplicity = 1:

       Center              X                  Y                   Z               Mass
    ------------   -----------------  -----------------  -----------------  -----------------
      Gh(N)          -4.293096210000    -3.068374310000     5.305162310000    14.003074004430
      Gh(N)          -2.158473710000    -2.926272960000     1.720374480000    14.003074004430
      Gh(H)          -0.025455870000    -6.359035750000     2.220464520000     1.007825032230
      Gh(H)          -2.685669680000    -6.532602410000     6.614459540000     1.007825032230
      Gh(H)          -4.743884230000    -0.006090060000     2.756159680000     1.007825032230
      Gh(H)          -1.410455400000    -2.247231470000     0.000000000000     1.007825032230
      Gh(C)          -1.437379910000    -5.075048480000     2.940658910000    12.000000000000
      Gh(C)          -2.769007820000    -5.146099160000     5.135228800000    12.000000000000
      Gh(C)          -3.859550360000    -1.777281980000     3.210934110000    12.000000000000
         N           29.290671780000    14.121829910000    11.490742040000    14.003074004430
         N           27.156049280000    13.979728550000    15.075529880000    14.003074004430
         H           25.023031440000    17.412491340000    14.575439840000     1.007825032230
         H           27.683245250000    17.586058000000    10.181444820000     1.007825032230
         H           29.741459800000    11.059545650000    14.039744680000     1.007825032230
         H           26.408030970000    13.300687060000    16.795904350000     1.007825032230
         C           26.434955480000    16.128504080000    13.855245440000    12.000000000000
         C           27.766583390000    16.199554760000    11.660675550000    12.000000000000
         C           28.857125930000    12.830737570000    13.584970240000    12.000000000000

  Charge       = 0
  Multiplicity = 1
  Basis Set: AUG-CC-PVDZ
    Blend: AUG-CC-PVDZ
  Basis Set: (AUG-CC-PVDZ AUX)
    Blend: AUG-CC-PVDZ-JKFIT

    Orbital Energies [Eh]
    ---------------------

    Doubly Occupied:

       1A    -15.637071     2A    -15.551216     3A    -11.300916
       4A    -11.263160     5A    -11.245653     6A     -1.352867
       7A     -1.169098     8A     -1.012098     9A     -0.824390
      10A     -0.803731    11A     -0.760666    12A     -0.610096
      13A     -0.603958    14A     -0.601922    15A     -0.570942
      16A     -0.435483    17A     -0.400464    18A     -0.320685

  @DF-RHF Final Energy:  -224.84369627888648

   => Energetics <=

    Nuclear Repulsion Energy =            164.0866957760303819
    One-Electron Energy =                -628.9319558688388270
    Two-Electron Energy =                 240.0015638139219334
    Total Energy =                       -224.8436962788864832

  Dipole Moment: [D]
     X:    -2.0431      Y:    -0.4150      Z:     3.3867     Total:     3.9769

    SAPT Results
  --------------------------------------------------------------------------------------------------------
    Electrostatics                 -0.04565808 [mEh]      -0.02865088 [kcal/mol]      -0.11987527 [kJ/mol]
      Elst10,r                     -0.04565808 [mEh]      -0.02865088 [kcal/mol]      -0.11987527 [kJ/mol]

    Exchange                        0.00000000 [mEh]       0.00000000 [kcal/mol]       0.00000000 [kJ/mol]
      Exch10                        0.00000000 [mEh]       0.00000000 [kcal/mol]       0.00000000 [kJ/mol]
      Exch10(S^2)                   0.00000000 [mEh]       0.00000000 [kcal/mol]       0.00000000 [kJ/mol]

    Induction                      -0.00005499 [mEh]      -0.00003450 [kcal/mol]      -0.00014437 [kJ/mol]
      Ind20,r                      -0.00005013 [mEh]      -0.00003145 [kcal/mol]      -0.00013160 [kJ/mol]
      Exch-Ind20,r                  0.00000000 [mEh]       0.00000000 [kcal/mol]       0.00000000 [kJ/mol]
      delta HF,r (2)               -0.00000486 [mEh]      -0.00000305 [kcal/mol]      -0.00001276 [kJ/mol]

    Dispersion                     -0.00039444 [mEh]      -0.00024752 [kcal/mol]      -0.00103561 [kJ/mol]
      Disp20                       -0.00039444 [mEh]      -0.00024752 [kcal/mol]      -0.00103561 [kJ/mol]
      Exch-Disp20                   0.00000000 [mEh]       0.00000000 [kcal/mol]       0.00000000 [kJ/mol]
      Disp20 (SS)                  -0.00019722 [mEh]      -0.00012376 [kcal/mol]      -0.00051781 [kJ/mol]
      Disp20 (OS)                  -0.00019722 [mEh]      -0.00012376 [kcal/mol]      -0.00051781 [kJ/mol]
      Exch-Disp20 (SS)              0.00000000 [mEh]       0.00000000 [kcal/mol]       0.00000000 [kJ/mol]
      Exch-Disp20 (OS)              0.00000000 [mEh]       0.00000000 [kcal/mol]       0.00000000 [kJ/mol]

  Total HF                         -0.04571307 [mEh]      -0.02868538 [kcal/mol]      -0.12001964 [kJ/mol]
  Total SAPT0                      -0.04610751 [mEh]      -0.02893290 [kcal/mol]      -0.12105525 [kJ/mol]

  Special recipe for scaled SAPT0 (see Manual):
    Electrostatics sSAPT0          -0.04565808 [mEh]      -0.02865088 [kcal/mol]      -0.11987527 [kJ/mol]
    Exchange sSAPT0                 0.00000000 [mEh]       0.00000000 [kcal/mol]       0.00000000 [kJ/mol]
    Induction sSAPT0               -0.00005499 [mEh]      -0.00003450 [kcal/mol]      -0.00014437 [kJ/mol]
    Dispersion sSAPT0              -0.00039444 [mEh]      -0.00024752 [kcal/mol]      -0.00103561 [kJ/mol]
  Total sSAPT0                     -0.04610751 [mEh]      -0.02893290 [kcal/mol]      -0.12105525 [kJ/mol]
  --------------------------------------------------------------------------------------------------------

*** Psi4 exiting successfully. Buy a developer a beer!
