                               Psi4 1.4rc3

  ==> Input File <==

--------------------------------------------------------------------------
# PSI4 file produced by CrystaLattE

# Generated from:               imidazole.xyz
# Psithon input for N-mer:      2mer-0+194
# Number of atoms per monomer:  [9, 9]
# Number of replicas:           2
# COM priority:                 2.430776790304e-05
# Minimum COM separations:      18.268
# Separation priority:          3.766803756134e-05
# Minimum monomer separations:  15.786
# Cutoff priority:              1.262691701946e-06
# Nuclear repulsion energy:     365.6511720544482

memory 7 GB

molecule Dimer_0_194 {
  N           -4.29309621      -3.06837431       5.30516231
  N           -2.15847371      -2.92627296       1.72037448
  H           -0.02545587      -6.35903575       2.22046452
  H           -2.68566968      -6.53260241       6.61445954
  H           -4.74388423      -0.00609006       2.75615968
  H           -1.41045540      -2.24723147       0.00000000
  C           -1.43737991      -5.07504848       2.94065891
  C           -2.76900782      -5.14609916       5.13522880
  C           -3.85955036      -1.77728198       3.21093411
--
  N           19.88128070      19.19687839      13.39723417
  N           22.01590320      19.05477703       9.81244634
  H           24.14892105      22.48753983      10.31253638
  H           21.48870723      22.66110648      14.70653140
  H           19.43049269      16.13459414      10.84823154
  H           22.76392151      18.37573555       8.09207186
  C           22.73699700      21.20355256      11.03273078
  C           21.40536909      21.27460324      13.22730066
  C           20.31482655      17.90578606      11.30300598
units = au
no_com
no_reorient
}

set {
  e_convergence 10
  d_convergence 10
  scf_type df
  mp2_type df
  cc_type df
  freeze_core true
}

energy('sapt0/aug-cc-pvdz')

--------------------------------------------------------------------------

  //              Dimer HF             //
    Molecular point group: c1
  Charge       = 0
  Multiplicity = 1
  Basis Set: AUG-CC-PVDZ
    Blend: AUG-CC-PVDZ
  Basis Set: (AUG-CC-PVDZ AUX)
    Blend: AUG-CC-PVDZ-JKFIT
  @DF-RHF Final Energy:  -449.68732806535508
    Total Energy =                       -449.6873280653550182
  //            Monomer A HF           //
    Molecular point group: c1
  Multiplicity = 1
  Basis Set: AUG-CC-PVDZ
    Blend: AUG-CC-PVDZ
  Basis Set: (AUG-CC-PVDZ AUX)
    Blend: AUG-CC-PVDZ-JKFIT
  @DF-RHF Final Energy:  -224.84369627887210
    Total Energy =                       -224.8436962788721019
  //            Monomer B HF           //
    Molecular point group: c1

    Geometry (in Bohr), charge = 0, multiplicity = 1:

       Center              X                  Y                   Z               Mass
    ------------   -----------------  -----------------  -----------------  -----------------
      Gh(N)          -4.293096210000    -3.068374310000     5.305162310000    14.003074004430
      Gh(N)          -2.158473710000    -2.926272960000     1.720374480000    14.003074004430
      Gh(H)          -0.025455870000    -6.359035750000     2.220464520000     1.007825032230
      Gh(H)          -2.685669680000    -6.532602410000     6.614459540000     1.007825032230
      Gh(H)          -4.743884230000    -0.006090060000     2.756159680000     1.007825032230
      Gh(H)          -1.410455400000    -2.247231470000     0.000000000000     1.007825032230
      Gh(C)          -1.437379910000    -5.075048480000     2.940658910000    12.000000000000
      Gh(C)          -2.769007820000    -5.146099160000     5.135228800000    12.000000000000
      Gh(C)          -3.859550360000    -1.777281980000     3.210934110000    12.000000000000
         N           19.881280700000    19.196878390000    13.397234170000    14.003074004430
         N           22.015903200000    19.054777030000     9.812446340000    14.003074004430
         H           24.148921050000    22.487539830000    10.312536380000     1.007825032230
         H           21.488707230000    22.661106480000    14.706531400000     1.007825032230
         H           19.430492690000    16.134594140000    10.848231540000     1.007825032230
         H           22.763921510000    18.375735550000     8.092071860000     1.007825032230
         C           22.736997000000    21.203552560000    11.032730780000    12.000000000000
         C           21.405369090000    21.274603240000    13.227300660000    12.000000000000
         C           20.314826550000    17.905786060000    11.303005980000    12.000000000000

  Charge       = 0
  Multiplicity = 1
  Basis Set: AUG-CC-PVDZ
    Blend: AUG-CC-PVDZ
  Basis Set: (AUG-CC-PVDZ AUX)
    Blend: AUG-CC-PVDZ-JKFIT

    Orbital Energies [Eh]
    ---------------------

    Doubly Occupied:

       1A    -15.637071     2A    -15.551216     3A    -11.300916
       4A    -11.263160     5A    -11.245653     6A     -1.352867
       7A     -1.169098     8A     -1.012098     9A     -0.824390
      10A     -0.803731    11A     -0.760666    12A     -0.610096
      13A     -0.603958    14A     -0.601922    15A     -0.570942
      16A     -0.435483    17A     -0.400464    18A     -0.320685

  @DF-RHF Final Energy:  -224.84369627812001

   => Energetics <=

    Nuclear Repulsion Energy =            164.0866960212686081
    One-Electron Energy =                -628.9319563559959079
    Two-Electron Energy =                 240.0015640566072932
    Total Energy =                       -224.8436962781200066

  Dipole Moment: [D]
     X:     2.0431      Y:    -0.4150      Z:    -3.3867     Total:     3.9769

    SAPT Results
  --------------------------------------------------------------------------------------------------------
    Electrostatics                  0.06457198 [mEh]       0.04051953 [kcal/mol]       0.16953371 [kJ/mol]
      Elst10,r                      0.06457198 [mEh]       0.04051953 [kcal/mol]       0.16953371 [kJ/mol]

    Exchange                        0.00000000 [mEh]       0.00000000 [kcal/mol]       0.00000000 [kJ/mol]
      Exch10                        0.00000000 [mEh]       0.00000000 [kcal/mol]       0.00000000 [kJ/mol]
      Exch10(S^2)                   0.00000000 [mEh]       0.00000000 [kcal/mol]       0.00000000 [kJ/mol]

    Induction                      -0.00008034 [mEh]      -0.00005042 [kcal/mol]      -0.00021094 [kJ/mol]
      Ind20,r                      -0.00008987 [mEh]      -0.00005639 [kcal/mol]      -0.00023595 [kJ/mol]
      Exch-Ind20,r                  0.00000000 [mEh]       0.00000000 [kcal/mol]       0.00000000 [kJ/mol]
      delta HF,r (2)                0.00000953 [mEh]       0.00000598 [kcal/mol]       0.00002502 [kJ/mol]

    Dispersion                     -0.00068522 [mEh]      -0.00042998 [kcal/mol]      -0.00179904 [kJ/mol]
      Disp20                       -0.00068522 [mEh]      -0.00042998 [kcal/mol]      -0.00179904 [kJ/mol]
      Exch-Disp20                   0.00000000 [mEh]       0.00000000 [kcal/mol]       0.00000000 [kJ/mol]
      Disp20 (SS)                  -0.00034261 [mEh]      -0.00021499 [kcal/mol]      -0.00089952 [kJ/mol]
      Disp20 (OS)                  -0.00034261 [mEh]      -0.00021499 [kcal/mol]      -0.00089952 [kJ/mol]
      Exch-Disp20 (SS)              0.00000000 [mEh]       0.00000000 [kcal/mol]       0.00000000 [kJ/mol]
      Exch-Disp20 (OS)              0.00000000 [mEh]       0.00000000 [kcal/mol]       0.00000000 [kJ/mol]

  Total HF                          0.06449164 [mEh]       0.04046911 [kcal/mol]       0.16932277 [kJ/mol]
  Total SAPT0                       0.06380642 [mEh]       0.04003913 [kcal/mol]       0.16752373 [kJ/mol]

  Special recipe for scaled SAPT0 (see Manual):
    Electrostatics sSAPT0           0.06457198 [mEh]       0.04051953 [kcal/mol]       0.16953371 [kJ/mol]
    Exchange sSAPT0                 0.00000000 [mEh]       0.00000000 [kcal/mol]       0.00000000 [kJ/mol]
    Induction sSAPT0               -0.00008034 [mEh]      -0.00005042 [kcal/mol]      -0.00021094 [kJ/mol]
    Dispersion sSAPT0              -0.00068522 [mEh]      -0.00042998 [kcal/mol]      -0.00179904 [kJ/mol]
  Total sSAPT0                      0.06380642 [mEh]       0.04003913 [kcal/mol]       0.16752373 [kJ/mol]
  --------------------------------------------------------------------------------------------------------

*** Psi4 exiting successfully. Buy a developer a beer!
