                               Psi4 1.4rc3

  ==> Input File <==

--------------------------------------------------------------------------
# PSI4 file produced by CrystaLattE

# Generated from:               imidazole.xyz
# Psithon input for N-mer:      2mer-0+1
# Number of atoms per monomer:  [9, 9]
# Number of replicas:           2
# COM priority:                 1.089702253783e-03
# Minimum COM separations:      5.142
# Separation priority:          2.520049290485e-02
# Minimum monomer separations:  1.805
# Cutoff priority:              7.388314612800e-03
# Nuclear repulsion energy:     465.77977069823845

memory 7 GB

molecule Dimer_0_1 {
  N           -4.29309621      -3.06837431       5.30516231
  N           -2.15847371      -2.92627296       1.72037448
  H           -0.02545587      -6.35903575       2.22046452
  H           -2.68566968      -6.53260241       6.61445954
  H           -4.74388423      -0.00609006       2.75615968
  H           -1.41045540      -2.24723147       0.00000000
  C           -1.43737991      -5.07504848       2.94065891
  C           -2.76900782      -5.14609916       5.13522880
  C           -3.85955036      -1.77728198       3.21093411
--
  N            0.18908973      -1.10331554      -2.78690955
  N            2.32371223      -1.24541690      -6.37169738
  H            4.45673008       2.18734590      -5.87160734
  H            1.79651626       2.36091255      -1.47761232
  H           -0.26169828      -4.16559979      -5.33591219
  H            3.07173054      -1.92445838      -8.09207186
  C            3.04480603       0.90335863      -5.15141295
  C            1.71317812       0.97440931      -2.95684306
  C            0.62263559      -2.39440787      -4.88113775
units = au
no_com
no_reorient
}

set {
  e_convergence 10
  d_convergence 10
  scf_type df
  mp2_type df
  cc_type df
  freeze_core true
}

energy('sapt0/aug-cc-pvdz')

--------------------------------------------------------------------------

  //              Dimer HF             //
    Molecular point group: c1
  Charge       = 0
  Multiplicity = 1
  Basis Set: AUG-CC-PVDZ
    Blend: AUG-CC-PVDZ
  Basis Set: (AUG-CC-PVDZ AUX)
    Blend: AUG-CC-PVDZ-JKFIT
  @DF-RHF Final Energy:  -449.69861386070301
    Total Energy =                       -449.6986138607029488
  //            Monomer A HF           //
    Molecular point group: c1
  Multiplicity = 1
  Basis Set: AUG-CC-PVDZ
    Blend: AUG-CC-PVDZ
  Basis Set: (AUG-CC-PVDZ AUX)
    Blend: AUG-CC-PVDZ-JKFIT
  @DF-RHF Final Energy:  -224.84402904886400
    Total Energy =                       -224.8440290488640017
  //            Monomer B HF           //
    Molecular point group: c1

    Geometry (in Bohr), charge = 0, multiplicity = 1:

       Center              X                  Y                   Z               Mass
    ------------   -----------------  -----------------  -----------------  -----------------
      Gh(N)          -4.293096210000    -3.068374310000     5.305162310000    14.003074004430
      Gh(N)          -2.158473710000    -2.926272960000     1.720374480000    14.003074004430
      Gh(H)          -0.025455870000    -6.359035750000     2.220464520000     1.007825032230
      Gh(H)          -2.685669680000    -6.532602410000     6.614459540000     1.007825032230
      Gh(H)          -4.743884230000    -0.006090060000     2.756159680000     1.007825032230
      Gh(H)          -1.410455400000    -2.247231470000     0.000000000000     1.007825032230
      Gh(C)          -1.437379910000    -5.075048480000     2.940658910000    12.000000000000
      Gh(C)          -2.769007820000    -5.146099160000     5.135228800000    12.000000000000
      Gh(C)          -3.859550360000    -1.777281980000     3.210934110000    12.000000000000
         N            0.189089730000    -1.103315540000    -2.786909550000    14.003074004430
         N            2.323712230000    -1.245416900000    -6.371697380000    14.003074004430
         H            4.456730080000     2.187345900000    -5.871607340000     1.007825032230
         H            1.796516260000     2.360912550000    -1.477612320000     1.007825032230
         H           -0.261698280000    -4.165599790000    -5.335912190000     1.007825032230
         H            3.071730540000    -1.924458380000    -8.092071860000     1.007825032230
         C            3.044806030000     0.903358630000    -5.151412950000    12.000000000000
         C            1.713178120000     0.974409310000    -2.956843060000    12.000000000000
         C            0.622635590000    -2.394407870000    -4.881137750000    12.000000000000

  Charge       = 0
  Multiplicity = 1
  Basis Set: AUG-CC-PVDZ
    Blend: AUG-CC-PVDZ
  Basis Set: (AUG-CC-PVDZ AUX)
    Blend: AUG-CC-PVDZ-JKFIT

    Orbital Energies [Eh]
    ---------------------

    Doubly Occupied:

       1A    -15.637107     2A    -15.551304     3A    -11.300712
       4A    -11.263093     5A    -11.245485     6A     -1.352836
       7A     -1.169066     8A     -1.012064     9A     -0.824369
      10A     -0.803718    11A     -0.760651    12A     -0.610090
      13A     -0.603945    14A     -0.601908    15A     -0.570944
      16A     -0.435479    17A     -0.400430    18A     -0.320672

  @DF-RHF Final Energy:  -224.84409362095360

   => Energetics <=

    Nuclear Repulsion Energy =            164.0866960153085756
    One-Electron Energy =                -628.9338318412412718
    Two-Electron Energy =                 240.0030422049790957
    Total Energy =                       -224.8440936209536005

  Dipole Moment: [D]
     X:     2.0382      Y:    -0.4187      Z:    -3.3799     Total:     3.9690

    SAPT Results
  --------------------------------------------------------------------------------------------------------
    Electrostatics                -28.39822374 [mEh]     -17.82015444 [kcal/mol]     -74.55952616 [kJ/mol]
      Elst10,r                    -28.39822374 [mEh]     -17.82015444 [kcal/mol]     -74.55952616 [kJ/mol]

    Exchange                       30.21766504 [mEh]      18.96187109 [kcal/mol]      79.33646864 [kJ/mol]
      Exch10                       30.21766504 [mEh]      18.96187109 [kcal/mol]      79.33646864 [kJ/mol]
      Exch10(S^2)                  29.58726003 [mEh]      18.56628597 [kcal/mol]      77.68134050 [kJ/mol]

    Induction                     -12.31063219 [mEh]      -7.72503833 [kcal/mol]     -32.32156036 [kJ/mol]
      Ind20,r                     -14.07521597 [mEh]      -8.83233137 [kcal/mol]     -36.95447445 [kJ/mol]
      Exch-Ind20,r                  7.30272099 [mEh]       4.58252660 [kcal/mol]      19.17329131 [kJ/mol]
      delta HF,r (2)               -5.53813720 [mEh]      -3.47523356 [kcal/mol]     -14.54037722 [kJ/mol]

    Dispersion                     -8.04485862 [mEh]      -5.04822500 [kcal/mol]     -21.12177340 [kJ/mol]
      Disp20                       -9.87367119 [mEh]      -6.19582221 [kcal/mol]     -25.92332014 [kJ/mol]
      Exch-Disp20                   1.82881257 [mEh]       1.14759721 [kcal/mol]       4.80154675 [kJ/mol]
      Disp20 (SS)                  -4.93683560 [mEh]      -3.09791111 [kcal/mol]     -12.96166007 [kJ/mol]
      Disp20 (OS)                  -4.93683560 [mEh]      -3.09791111 [kcal/mol]     -12.96166007 [kJ/mol]
      Exch-Disp20 (SS)              1.14086248 [mEh]       0.71590202 [kcal/mol]       2.99533404 [kJ/mol]
      Exch-Disp20 (OS)              0.68795009 [mEh]       0.43169520 [kcal/mol]       1.80621271 [kJ/mol]

  Total HF                        -10.49119089 [mEh]      -6.58332167 [kcal/mol]     -27.54461787 [kJ/mol]
  Total SAPT0                     -18.53604950 [mEh]     -11.63154667 [kcal/mol]     -48.66639127 [kJ/mol]

  Special recipe for scaled SAPT0 (see Manual):
    Electrostatics sSAPT0         -28.39822374 [mEh]     -17.82015444 [kcal/mol]     -74.55952616 [kJ/mol]
    Exchange sSAPT0                30.21766504 [mEh]      18.96187109 [kcal/mol]      79.33646864 [kJ/mol]
    Induction sSAPT0              -11.83382656 [mEh]      -7.42583828 [kcal/mol]     -31.06970736 [kJ/mol]
    Dispersion sSAPT0              -7.92545270 [mEh]      -4.97329665 [kcal/mol]     -20.80827319 [kJ/mol]
  Total sSAPT0                    -17.93983796 [mEh]     -11.25741828 [kcal/mol]     -47.10103807 [kJ/mol]
  --------------------------------------------------------------------------------------------------------

*** Psi4 exiting successfully. Buy a developer a beer!
