                               Psi4 1.4rc3

  ==> Input File <==

--------------------------------------------------------------------------
# PSI4 file produced by CrystaLattE

# Generated from:               imidazole.xyz
# Psithon input for N-mer:      2mer-0+139
# Number of atoms per monomer:  [9, 9]
# Number of replicas:           2
# COM priority:                 6.038398671413e-05
# Minimum COM separations:      13.488
# Separation priority:          8.799245471728e-05
# Minimum monomer separations:  11.897
# Cutoff priority:              3.913757484235e-06
# Nuclear repulsion energy:     378.73219221932766

memory 7 GB

molecule Dimer_0_139 {
  N           -4.29309621      -3.06837431       5.30516231
  N           -2.15847371      -2.92627296       1.72037448
  H           -0.02545587      -6.35903575       2.22046452
  H           -2.68566968      -6.53260241       6.61445954
  H           -4.74388423      -0.00609006       2.75615968
  H           -1.41045540      -2.24723147       0.00000000
  C           -1.43737991      -5.07504848       2.94065891
  C           -2.76900782      -5.14609916       5.13522880
  C           -3.85955036      -1.77728198       3.21093411
--
  N           15.39909476      -3.06837431      21.48930603
  N           17.53371726      -2.92627296      17.90451820
  H           19.66673510      -6.35903575      18.40460824
  H           17.00652129      -6.53260241      22.79860326
  H           14.94830674      -0.00609006      18.94030340
  H           18.28173556      -2.24723147      16.18414372
  C           18.25481106      -5.07504848      19.12480264
  C           16.92318315      -5.14609916      21.31937252
  C           15.83264061      -1.77728198      19.39507784
units = au
no_com
no_reorient
}

set {
  e_convergence 10
  d_convergence 10
  scf_type df
  mp2_type df
  cc_type df
  freeze_core true
}

energy('sapt0/aug-cc-pvdz')

--------------------------------------------------------------------------

  //              Dimer HF             //
    Molecular point group: c1
  Charge       = 0
  Multiplicity = 1
  Basis Set: AUG-CC-PVDZ
    Blend: AUG-CC-PVDZ
  Basis Set: (AUG-CC-PVDZ AUX)
    Blend: AUG-CC-PVDZ-JKFIT
  @DF-RHF Final Energy:  -449.68727218075651
    Total Energy =                       -449.6872721807565085
  //            Monomer A HF           //
    Molecular point group: c1
  Multiplicity = 1
  Basis Set: AUG-CC-PVDZ
    Blend: AUG-CC-PVDZ
  Basis Set: (AUG-CC-PVDZ AUX)
    Blend: AUG-CC-PVDZ-JKFIT
  @DF-RHF Final Energy:  -224.84369629367438
    Total Energy =                       -224.8436962936743839
  //            Monomer B HF           //
    Molecular point group: c1

    Geometry (in Bohr), charge = 0, multiplicity = 1:

       Center              X                  Y                   Z               Mass
    ------------   -----------------  -----------------  -----------------  -----------------
      Gh(N)          -4.293096210000    -3.068374310000     5.305162310000    14.003074004430
      Gh(N)          -2.158473710000    -2.926272960000     1.720374480000    14.003074004430
      Gh(H)          -0.025455870000    -6.359035750000     2.220464520000     1.007825032230
      Gh(H)          -2.685669680000    -6.532602410000     6.614459540000     1.007825032230
      Gh(H)          -4.743884230000    -0.006090060000     2.756159680000     1.007825032230
      Gh(H)          -1.410455400000    -2.247231470000     0.000000000000     1.007825032230
      Gh(C)          -1.437379910000    -5.075048480000     2.940658910000    12.000000000000
      Gh(C)          -2.769007820000    -5.146099160000     5.135228800000    12.000000000000
      Gh(C)          -3.859550360000    -1.777281980000     3.210934110000    12.000000000000
         N           15.399094760000    -3.068374310000    21.489306030000    14.003074004430
         N           17.533717260000    -2.926272960000    17.904518200000    14.003074004430
         H           19.666735100000    -6.359035750000    18.404608240000     1.007825032230
         H           17.006521290000    -6.532602410000    22.798603260000     1.007825032230
         H           14.948306740000    -0.006090060000    18.940303400000     1.007825032230
         H           18.281735560000    -2.247231470000    16.184143720000     1.007825032230
         C           18.254811060000    -5.075048480000    19.124802640000    12.000000000000
         C           16.923183150000    -5.146099160000    21.319372520000    12.000000000000
         C           15.832640610000    -1.777281980000    19.395077840000    12.000000000000

  Charge       = 0
  Multiplicity = 1
  Basis Set: AUG-CC-PVDZ
    Blend: AUG-CC-PVDZ
  Basis Set: (AUG-CC-PVDZ AUX)
    Blend: AUG-CC-PVDZ-JKFIT

    Orbital Energies [Eh]
    ---------------------

    Doubly Occupied:

       1A    -15.637071     2A    -15.551216     3A    -11.300916
       4A    -11.263160     5A    -11.245653     6A     -1.352867
       7A     -1.169098     8A     -1.012098     9A     -0.824390
      10A     -0.803731    11A     -0.760666    12A     -0.610096
      13A     -0.603958    14A     -0.601922    15A     -0.570942
      16A     -0.435483    17A     -0.400464    18A     -0.320685

  @DF-RHF Final Energy:  -224.84369628960465

   => Energetics <=

    Nuclear Repulsion Energy =            164.0866960528891241
    One-Electron Energy =                -628.9319565141408930
    Two-Electron Energy =                 240.0015641716471180
    Total Energy =                       -224.8436962896046509

  Dipole Moment: [D]
     X:     2.0431      Y:     0.4150      Z:    -3.3867     Total:     3.9769

    SAPT Results
  --------------------------------------------------------------------------------------------------------
    Electrostatics                  0.12086468 [mEh]       0.07584373 [kcal/mol]       0.31733018 [kJ/mol]
      Elst10,r                      0.12086468 [mEh]       0.07584373 [kcal/mol]       0.31733018 [kJ/mol]

    Exchange                        0.00000000 [mEh]       0.00000000 [kcal/mol]       0.00000001 [kJ/mol]
      Exch10                        0.00000000 [mEh]       0.00000000 [kcal/mol]       0.00000001 [kJ/mol]
      Exch10(S^2)                   0.00000000 [mEh]       0.00000000 [kcal/mol]       0.00000001 [kJ/mol]

    Induction                      -0.00046216 [mEh]      -0.00029001 [kcal/mol]      -0.00121341 [kJ/mol]
      Ind20,r                      -0.00048937 [mEh]      -0.00030708 [kcal/mol]      -0.00128483 [kJ/mol]
      Exch-Ind20,r                  0.00000001 [mEh]       0.00000001 [kcal/mol]       0.00000003 [kJ/mol]
      delta HF,r (2)                0.00002719 [mEh]       0.00001706 [kcal/mol]       0.00007139 [kJ/mol]

    Dispersion                     -0.00402417 [mEh]      -0.00252521 [kcal/mol]      -0.01056547 [kJ/mol]
      Disp20                       -0.00402417 [mEh]      -0.00252521 [kcal/mol]      -0.01056547 [kJ/mol]
      Exch-Disp20                   0.00000000 [mEh]       0.00000000 [kcal/mol]       0.00000000 [kJ/mol]
      Disp20 (SS)                  -0.00201209 [mEh]      -0.00126260 [kcal/mol]      -0.00528273 [kJ/mol]
      Disp20 (OS)                  -0.00201209 [mEh]      -0.00126260 [kcal/mol]      -0.00528273 [kJ/mol]
      Exch-Disp20 (SS)              0.00000000 [mEh]       0.00000000 [kcal/mol]       0.00000000 [kJ/mol]
      Exch-Disp20 (OS)              0.00000000 [mEh]       0.00000000 [kcal/mol]       0.00000000 [kJ/mol]

  Total HF                          0.12040252 [mEh]       0.07555372 [kcal/mol]       0.31611678 [kJ/mol]
  Total SAPT0                       0.11637835 [mEh]       0.07302852 [kcal/mol]       0.30555131 [kJ/mol]

  Special recipe for scaled SAPT0 (see Manual):
    Electrostatics sSAPT0           0.12086468 [mEh]       0.07584373 [kcal/mol]       0.31733018 [kJ/mol]
    Exchange sSAPT0                 0.00000000 [mEh]       0.00000000 [kcal/mol]       0.00000001 [kJ/mol]
    Induction sSAPT0               -0.00046216 [mEh]      -0.00029001 [kcal/mol]      -0.00121341 [kJ/mol]
    Dispersion sSAPT0              -0.00402417 [mEh]      -0.00252521 [kcal/mol]      -0.01056547 [kJ/mol]
  Total sSAPT0                      0.11637835 [mEh]       0.07302852 [kcal/mol]       0.30555131 [kJ/mol]
  --------------------------------------------------------------------------------------------------------

*** Psi4 exiting successfully. Buy a developer a beer!
