                               Psi4 1.4rc3

  ==> Input File <==

--------------------------------------------------------------------------
# PSI4 file produced by CrystaLattE

# Generated from:               imidazole.xyz
# Psithon input for N-mer:      2mer-0+28
# Number of atoms per monomer:  [9, 9]
# Number of replicas:           2
# COM priority:                 1.847092969103e-04
# Minimum COM separations:      9.292
# Separation priority:          2.588983367169e-04
# Minimum monomer separations:  8.303
# Cutoff priority:              1.650082583781e-05
# Nuclear repulsion energy:     400.9986356019955

memory 7 GB

molecule Dimer_0_28 {
  N           -4.29309621      -3.06837431       5.30516231
  N           -2.15847371      -2.92627296       1.72037448
  H           -0.02545587      -6.35903575       2.22046452
  H           -2.68566968      -6.53260241       6.61445954
  H           -4.74388423      -0.00609006       2.75615968
  H           -1.41045540      -2.24723147       0.00000000
  C           -1.43737991      -5.07504848       2.94065891
  C           -2.76900782      -5.14609916       5.13522880
  C           -3.85955036      -1.77728198       3.21093411
--
  N           10.03518522       7.08172265       5.30516231
  N           12.16980772       7.22382401       1.72037448
  H           14.30282556       3.79106122       2.22046452
  H           11.64261175       3.61749456       6.61445954
  H            9.58439720      10.14400691       2.75615968
  H           12.91782602       7.90286550       0.00000000
  C           12.89090152       5.07504848       2.94065891
  C           11.55927361       5.00399780       5.13522880
  C           10.46873107       8.37281499       3.21093411
units = au
no_com
no_reorient
}

set {
  e_convergence 10
  d_convergence 10
  scf_type df
  mp2_type df
  cc_type df
  freeze_core true
}

energy('sapt0/aug-cc-pvdz')

--------------------------------------------------------------------------

  //              Dimer HF             //
    Molecular point group: c1
  Charge       = 0
  Multiplicity = 1
  Basis Set: AUG-CC-PVDZ
    Blend: AUG-CC-PVDZ
  Basis Set: (AUG-CC-PVDZ AUX)
    Blend: AUG-CC-PVDZ-JKFIT
  @DF-RHF Final Energy:  -449.68722652323316
    Total Energy =                       -449.6872265232331074
  //            Monomer A HF           //
    Molecular point group: c1
  Multiplicity = 1
  Basis Set: AUG-CC-PVDZ
    Blend: AUG-CC-PVDZ
  Basis Set: (AUG-CC-PVDZ AUX)
    Blend: AUG-CC-PVDZ-JKFIT
  @DF-RHF Final Energy:  -224.84369968066909
    Total Energy =                       -224.8436996806690900
  //            Monomer B HF           //
    Molecular point group: c1

    Geometry (in Bohr), charge = 0, multiplicity = 1:

       Center              X                  Y                   Z               Mass
    ------------   -----------------  -----------------  -----------------  -----------------
      Gh(N)          -4.293096210000    -3.068374310000     5.305162310000    14.003074004430
      Gh(N)          -2.158473710000    -2.926272960000     1.720374480000    14.003074004430
      Gh(H)          -0.025455870000    -6.359035750000     2.220464520000     1.007825032230
      Gh(H)          -2.685669680000    -6.532602410000     6.614459540000     1.007825032230
      Gh(H)          -4.743884230000    -0.006090060000     2.756159680000     1.007825032230
      Gh(H)          -1.410455400000    -2.247231470000     0.000000000000     1.007825032230
      Gh(C)          -1.437379910000    -5.075048480000     2.940658910000    12.000000000000
      Gh(C)          -2.769007820000    -5.146099160000     5.135228800000    12.000000000000
      Gh(C)          -3.859550360000    -1.777281980000     3.210934110000    12.000000000000
         N           10.035185220000     7.081722650000     5.305162310000    14.003074004430
         N           12.169807720000     7.223824010000     1.720374480000    14.003074004430
         H           14.302825560000     3.791061220000     2.220464520000     1.007825032230
         H           11.642611750000     3.617494560000     6.614459540000     1.007825032230
         H            9.584397200000    10.144006910000     2.756159680000     1.007825032230
         H           12.917826020000     7.902865500000     0.000000000000     1.007825032230
         C           12.890901520000     5.075048480000     2.940658910000    12.000000000000
         C           11.559273610000     5.003997800000     5.135228800000    12.000000000000
         C           10.468731070000     8.372814990000     3.210934110000    12.000000000000

  Charge       = 0
  Multiplicity = 1
  Basis Set: AUG-CC-PVDZ
    Blend: AUG-CC-PVDZ
  Basis Set: (AUG-CC-PVDZ AUX)
    Blend: AUG-CC-PVDZ-JKFIT

    Orbital Energies [Eh]
    ---------------------

    Doubly Occupied:

       1A    -15.637072     2A    -15.551218     3A    -11.300917
       4A    -11.263160     5A    -11.245652     6A     -1.352868
       7A     -1.169100     8A     -1.012099     9A     -0.824390
      10A     -0.803732    11A     -0.760667    12A     -0.610097
      13A     -0.603958    14A     -0.601923    15A     -0.570943
      16A     -0.435484    17A     -0.400466    18A     -0.320686

  @DF-RHF Final Energy:  -224.84370106030298

   => Energetics <=

    Nuclear Repulsion Energy =            164.0866958829427631
    One-Electron Energy =                -628.9319316401455353
    Two-Electron Energy =                 240.0015346968997960
    Total Energy =                       -224.8437010603029762

  Dipole Moment: [D]
     X:     2.0429      Y:     0.4151      Z:    -3.3867     Total:     3.9769

    SAPT Results
  --------------------------------------------------------------------------------------------------------
    Electrostatics                  0.17910607 [mEh]       0.11239075 [kcal/mol]       0.47024292 [kJ/mol]
      Elst10,r                      0.17910607 [mEh]       0.11239075 [kcal/mol]       0.47024292 [kJ/mol]

    Exchange                       -0.00000007 [mEh]      -0.00000005 [kcal/mol]      -0.00000019 [kJ/mol]
      Exch10                       -0.00000007 [mEh]      -0.00000005 [kcal/mol]      -0.00000019 [kJ/mol]
      Exch10(S^2)                  -0.00000007 [mEh]      -0.00000005 [kcal/mol]      -0.00000019 [kJ/mol]

    Induction                      -0.00488826 [mEh]      -0.00306743 [kcal/mol]      -0.01283412 [kJ/mol]
      Ind20,r                      -0.00493133 [mEh]      -0.00309446 [kcal/mol]      -0.01294721 [kJ/mol]
      Exch-Ind20,r                  0.00000588 [mEh]       0.00000369 [kcal/mol]       0.00001545 [kJ/mol]
      delta HF,r (2)                0.00003719 [mEh]       0.00002334 [kcal/mol]       0.00009765 [kJ/mol]

    Dispersion                     -0.03730656 [mEh]      -0.02341022 [kcal/mol]      -0.09794835 [kJ/mol]
      Disp20                       -0.03730757 [mEh]      -0.02341085 [kcal/mol]      -0.09795100 [kJ/mol]
      Exch-Disp20                   0.00000101 [mEh]       0.00000063 [kcal/mol]       0.00000264 [kJ/mol]
      Disp20 (SS)                  -0.01865378 [mEh]      -0.01170543 [kcal/mol]      -0.04897550 [kJ/mol]
      Disp20 (OS)                  -0.01865378 [mEh]      -0.01170543 [kcal/mol]      -0.04897550 [kJ/mol]
      Exch-Disp20 (SS)              0.00000086 [mEh]       0.00000054 [kcal/mol]       0.00000225 [kJ/mol]
      Exch-Disp20 (OS)              0.00000015 [mEh]       0.00000009 [kcal/mol]       0.00000039 [kJ/mol]

  Total HF                          0.17421774 [mEh]       0.10932328 [kcal/mol]       0.45740861 [kJ/mol]
  Total SAPT0                       0.13691118 [mEh]       0.08591306 [kcal/mol]       0.35946026 [kJ/mol]

  Special recipe for scaled SAPT0 (see Manual):
    Electrostatics sSAPT0           0.17910607 [mEh]       0.11239075 [kcal/mol]       0.47024292 [kJ/mol]
    Exchange sSAPT0                -0.00000007 [mEh]      -0.00000005 [kcal/mol]      -0.00000019 [kJ/mol]
    Induction sSAPT0               -0.00488826 [mEh]      -0.00306743 [kcal/mol]      -0.01283412 [kJ/mol]
    Dispersion sSAPT0              -0.03730656 [mEh]      -0.02341022 [kcal/mol]      -0.09794835 [kJ/mol]
  Total sSAPT0                      0.13691118 [mEh]       0.08591306 [kcal/mol]       0.35946026 [kJ/mol]
  --------------------------------------------------------------------------------------------------------

*** Psi4 exiting successfully. Buy a developer a beer!
