                               Psi4 1.4rc3

  ==> Input File <==

--------------------------------------------------------------------------
# PSI4 file produced by CrystaLattE

# Generated from:               imidazole.xyz
# Psithon input for N-mer:      2mer-0+457
# Number of atoms per monomer:  [9, 9]
# Number of replicas:           2
# COM priority:                 1.771142915289e-05
# Minimum COM separations:      20.301
# Separation priority:          2.788921585519e-05
# Minimum monomer separations:  17.450
# Cutoff priority:              8.457624603779e-07
# Nuclear repulsion energy:     361.88192445815406

memory 7 GB

molecule Dimer_0_457 {
  N           -4.29309621      -3.06837431       5.30516231
  N           -2.15847371      -2.92627296       1.72037448
  H           -0.02545587      -6.35903575       2.22046452
  H           -2.68566968      -6.53260241       6.61445954
  H           -4.74388423      -0.00609006       2.75615968
  H           -1.41045540      -2.24723147       0.00000000
  C           -1.43737991      -5.07504848       2.94065891
  C           -2.76900782      -5.14609916       5.13522880
  C           -3.85955036      -1.77728198       3.21093411
--
  N           15.84411395       2.00667417      35.76695762
  N           13.70949145       2.14877553      39.35174546
  H           11.57647360      -1.28398727      38.85165542
  H           14.23668742      -1.45755392      34.45766040
  H           16.29490196       5.06895842      38.31596026
  H           12.96147314       2.82781701      41.07211994
  C           12.98839765      -0.00000000      38.13146102
  C           14.32002556      -0.07105068      35.93689113
  C           15.41056810       3.29776650      37.86118582
units = au
no_com
no_reorient
}

set {
  e_convergence 10
  d_convergence 10
  scf_type df
  mp2_type df
  cc_type df
  freeze_core true
}

energy('sapt0/aug-cc-pvdz')

--------------------------------------------------------------------------

  //              Dimer HF             //
    Molecular point group: c1
  Charge       = 0
  Multiplicity = 1
  Basis Set: AUG-CC-PVDZ
    Blend: AUG-CC-PVDZ
  Basis Set: (AUG-CC-PVDZ AUX)
    Blend: AUG-CC-PVDZ-JKFIT
  @DF-RHF Final Energy:  -449.68739528039384
    Total Energy =                       -449.6873952803938437
  //            Monomer A HF           //
    Molecular point group: c1
  Multiplicity = 1
  Basis Set: AUG-CC-PVDZ
    Blend: AUG-CC-PVDZ
  Basis Set: (AUG-CC-PVDZ AUX)
    Blend: AUG-CC-PVDZ-JKFIT
  @DF-RHF Final Energy:  -224.84369627790412
    Total Energy =                       -224.8436962779041153
  //            Monomer B HF           //
    Molecular point group: c1

    Geometry (in Bohr), charge = 0, multiplicity = 1:

       Center              X                  Y                   Z               Mass
    ------------   -----------------  -----------------  -----------------  -----------------
      Gh(N)          -4.293096210000    -3.068374310000     5.305162310000    14.003074004430
      Gh(N)          -2.158473710000    -2.926272960000     1.720374480000    14.003074004430
      Gh(H)          -0.025455870000    -6.359035750000     2.220464520000     1.007825032230
      Gh(H)          -2.685669680000    -6.532602410000     6.614459540000     1.007825032230
      Gh(H)          -4.743884230000    -0.006090060000     2.756159680000     1.007825032230
      Gh(H)          -1.410455400000    -2.247231470000     0.000000000000     1.007825032230
      Gh(C)          -1.437379910000    -5.075048480000     2.940658910000    12.000000000000
      Gh(C)          -2.769007820000    -5.146099160000     5.135228800000    12.000000000000
      Gh(C)          -3.859550360000    -1.777281980000     3.210934110000    12.000000000000
         N           15.844113950000     2.006674170000    35.766957620000    14.003074004430
         N           13.709491450000     2.148775530000    39.351745460000    14.003074004430
         H           11.576473600000    -1.283987270000    38.851655420000     1.007825032230
         H           14.236687420000    -1.457553920000    34.457660400000     1.007825032230
         H           16.294901960000     5.068958420000    38.315960260000     1.007825032230
         H           12.961473140000     2.827817010000    41.072119940000     1.007825032230
         C           12.988397650000     0.000000000000    38.131461020000    12.000000000000
         C           14.320025560000    -0.071050680000    35.936891130000    12.000000000000
         C           15.410568100000     3.297766500000    37.861185820000    12.000000000000

  Charge       = 0
  Multiplicity = 1
  Basis Set: AUG-CC-PVDZ
    Blend: AUG-CC-PVDZ
  Basis Set: (AUG-CC-PVDZ AUX)
    Blend: AUG-CC-PVDZ-JKFIT

    Orbital Energies [Eh]
    ---------------------

    Doubly Occupied:

       1A    -15.637071     2A    -15.551216     3A    -11.300916
       4A    -11.263160     5A    -11.245653     6A     -1.352867
       7A     -1.169098     8A     -1.012098     9A     -0.824390
      10A     -0.803731    11A     -0.760666    12A     -0.610096
      13A     -0.603958    14A     -0.601922    15A     -0.570942
      16A     -0.435483    17A     -0.400464    18A     -0.320685

  @DF-RHF Final Energy:  -224.84369627833149

   => Energetics <=

    Nuclear Repulsion Energy =            164.0866958519446825
    One-Electron Energy =                -628.9319560176148798
    Two-Electron Energy =                 240.0015638873387047
    Total Energy =                       -224.8436962783314925

  Dipole Moment: [D]
     X:    -2.0431      Y:     0.4150      Z:     3.3867     Total:     3.9769

    SAPT Results
  --------------------------------------------------------------------------------------------------------
    Electrostatics                 -0.00268619 [mEh]      -0.00168561 [kcal/mol]      -0.00705259 [kJ/mol]
      Elst10,r                     -0.00268619 [mEh]      -0.00168561 [kcal/mol]      -0.00705259 [kJ/mol]

    Exchange                        0.00000000 [mEh]       0.00000000 [kcal/mol]       0.00000000 [kJ/mol]
      Exch10                        0.00000000 [mEh]       0.00000000 [kcal/mol]       0.00000000 [kJ/mol]
      Exch10(S^2)                   0.00000000 [mEh]       0.00000000 [kcal/mol]       0.00000000 [kJ/mol]

    Induction                      -0.00003797 [mEh]      -0.00002382 [kcal/mol]      -0.00009968 [kJ/mol]
      Ind20,r                      -0.00005115 [mEh]      -0.00003209 [kcal/mol]      -0.00013428 [kJ/mol]
      Exch-Ind20,r                  0.00000000 [mEh]       0.00000000 [kcal/mol]       0.00000000 [kJ/mol]
      delta HF,r (2)                0.00001318 [mEh]       0.00000827 [kcal/mol]       0.00003460 [kJ/mol]

    Dispersion                     -0.00037866 [mEh]      -0.00023761 [kcal/mol]      -0.00099416 [kJ/mol]
      Disp20                       -0.00037866 [mEh]      -0.00023761 [kcal/mol]      -0.00099416 [kJ/mol]
      Exch-Disp20                   0.00000000 [mEh]       0.00000000 [kcal/mol]       0.00000000 [kJ/mol]
      Disp20 (SS)                  -0.00018933 [mEh]      -0.00011881 [kcal/mol]      -0.00049708 [kJ/mol]
      Disp20 (OS)                  -0.00018933 [mEh]      -0.00011881 [kcal/mol]      -0.00049708 [kJ/mol]
      Exch-Disp20 (SS)              0.00000000 [mEh]       0.00000000 [kcal/mol]       0.00000000 [kJ/mol]
      Exch-Disp20 (OS)              0.00000000 [mEh]       0.00000000 [kcal/mol]       0.00000000 [kJ/mol]

  Total HF                         -0.00272416 [mEh]      -0.00170944 [kcal/mol]      -0.00715228 [kJ/mol]
  Total SAPT0                      -0.00310281 [mEh]      -0.00194705 [kcal/mol]      -0.00814644 [kJ/mol]

  Special recipe for scaled SAPT0 (see Manual):
    Electrostatics sSAPT0          -0.00268619 [mEh]      -0.00168561 [kcal/mol]      -0.00705259 [kJ/mol]
    Exchange sSAPT0                 0.00000000 [mEh]       0.00000000 [kcal/mol]       0.00000000 [kJ/mol]
    Induction sSAPT0               -0.00003797 [mEh]      -0.00002382 [kcal/mol]      -0.00009968 [kJ/mol]
    Dispersion sSAPT0              -0.00037866 [mEh]      -0.00023761 [kcal/mol]      -0.00099416 [kJ/mol]
  Total sSAPT0                     -0.00310281 [mEh]      -0.00194705 [kcal/mol]      -0.00814644 [kJ/mol]
  --------------------------------------------------------------------------------------------------------

*** Psi4 exiting successfully. Buy a developer a beer!
