                               Psi4 1.4rc3

  ==> Input File <==

--------------------------------------------------------------------------
# PSI4 file produced by CrystaLattE

# Generated from:               imidazole.xyz
# Psithon input for N-mer:      2mer-0+464
# Number of atoms per monomer:  [9, 9]
# Number of replicas:           1
# COM priority:                 1.222748033214e-05
# Minimum COM separations:      22.970
# Separation priority:          1.976220302694e-05
# Minimum monomer separations:  19.573
# Cutoff priority:              5.342942195077e-07
# Nuclear repulsion energy:     358.1336554625528

memory 7 GB

molecule Dimer_0_464 {
  N           -4.29309621      -3.06837431       5.30516231
  N           -2.15847371      -2.92627296       1.72037448
  H           -0.02545587      -6.35903575       2.22046452
  H           -2.68566968      -6.53260241       6.61445954
  H           -4.74388423      -0.00609006       2.75615968
  H           -1.41045540      -2.24723147       0.00000000
  C           -1.43737991      -5.07504848       2.94065891
  C           -2.76900782      -5.14609916       5.13522880
  C           -3.85955036      -1.77728198       3.21093411
--
  N           13.19894316     -16.32846099     -37.06168912
  N           11.06432066     -16.47056235     -33.47690129
  H            8.93130282     -13.03779955     -33.97699133
  H           11.59151663     -12.86423289     -38.37098635
  H           13.64973118     -19.39074524     -34.51268649
  H           10.31630235     -17.14960383     -31.75652681
  C           10.34322686     -14.32178682     -34.69718572
  C           11.67485477     -14.25073614     -36.89175561
  C           12.76539731     -17.61955332     -34.96746092
units = au
no_com
no_reorient
}

set {
  e_convergence 10
  d_convergence 10
  scf_type df
  mp2_type df
  cc_type df
  freeze_core true
}

energy('sapt0/aug-cc-pvdz')

--------------------------------------------------------------------------

  //              Dimer HF             //
    Molecular point group: c1
  Charge       = 0
  Multiplicity = 1
  Basis Set: AUG-CC-PVDZ
    Blend: AUG-CC-PVDZ
  Basis Set: (AUG-CC-PVDZ AUX)
    Blend: AUG-CC-PVDZ-JKFIT
  @DF-RHF Final Energy:  -449.68735239612744
    Total Energy =                       -449.6873523961274373
  //            Monomer A HF           //
    Molecular point group: c1
  Multiplicity = 1
  Basis Set: AUG-CC-PVDZ
    Blend: AUG-CC-PVDZ
  Basis Set: (AUG-CC-PVDZ AUX)
    Blend: AUG-CC-PVDZ-JKFIT
  @DF-RHF Final Energy:  -224.84369627751576
    Total Energy =                       -224.8436962775157610
  //            Monomer B HF           //
    Molecular point group: c1

    Geometry (in Bohr), charge = 0, multiplicity = 1:

       Center              X                  Y                   Z               Mass
    ------------   -----------------  -----------------  -----------------  -----------------
      Gh(N)          -4.293096210000    -3.068374310000     5.305162310000    14.003074004430
      Gh(N)          -2.158473710000    -2.926272960000     1.720374480000    14.003074004430
      Gh(H)          -0.025455870000    -6.359035750000     2.220464520000     1.007825032230
      Gh(H)          -2.685669680000    -6.532602410000     6.614459540000     1.007825032230
      Gh(H)          -4.743884230000    -0.006090060000     2.756159680000     1.007825032230
      Gh(H)          -1.410455400000    -2.247231470000     0.000000000000     1.007825032230
      Gh(C)          -1.437379910000    -5.075048480000     2.940658910000    12.000000000000
      Gh(C)          -2.769007820000    -5.146099160000     5.135228800000    12.000000000000
      Gh(C)          -3.859550360000    -1.777281980000     3.210934110000    12.000000000000
         N           13.198943160000   -16.328460990000   -37.061689120000    14.003074004430
         N           11.064320660000   -16.470562350000   -33.476901290000    14.003074004430
         H            8.931302820000   -13.037799550000   -33.976991330000     1.007825032230
         H           11.591516630000   -12.864232890000   -38.370986350000     1.007825032230
         H           13.649731180000   -19.390745240000   -34.512686490000     1.007825032230
         H           10.316302350000   -17.149603830000   -31.756526810000     1.007825032230
         C           10.343226860000   -14.321786820000   -34.697185720000    12.000000000000
         C           11.674854770000   -14.250736140000   -36.891755610000    12.000000000000
         C           12.765397310000   -17.619553320000   -34.967460920000    12.000000000000

  Charge       = 0
  Multiplicity = 1
  Basis Set: AUG-CC-PVDZ
    Blend: AUG-CC-PVDZ
  Basis Set: (AUG-CC-PVDZ AUX)
    Blend: AUG-CC-PVDZ-JKFIT

    Orbital Energies [Eh]
    ---------------------

    Doubly Occupied:

       1A    -15.637071     2A    -15.551216     3A    -11.300916
       4A    -11.263160     5A    -11.245653     6A     -1.352867
       7A     -1.169098     8A     -1.012098     9A     -0.824390
      10A     -0.803731    11A     -0.760666    12A     -0.610096
      13A     -0.603958    14A     -0.601922    15A     -0.570942
      16A     -0.435483    17A     -0.400464    18A     -0.320685

  @DF-RHF Final Energy:  -224.84369627847300

   => Energetics <=

    Nuclear Repulsion Energy =            164.0866959609570301
    One-Electron Energy =                -628.9319562312649623
    Two-Electron Energy =                 240.0015639918348995
    Total Energy =                       -224.8436962784730042

  Dipole Moment: [D]
     X:    -2.0431      Y:    -0.4150      Z:     3.3867     Total:     3.9769

    SAPT Results
  --------------------------------------------------------------------------------------------------------
    Electrostatics                  0.04022800 [mEh]       0.02524345 [kcal/mol]       0.10561861 [kJ/mol]
      Elst10,r                      0.04022800 [mEh]       0.02524345 [kcal/mol]       0.10561861 [kJ/mol]

    Exchange                        0.00000000 [mEh]       0.00000000 [kcal/mol]       0.00000000 [kJ/mol]
      Exch10                        0.00000000 [mEh]       0.00000000 [kcal/mol]       0.00000000 [kJ/mol]
      Exch10(S^2)                   0.00000000 [mEh]       0.00000000 [kcal/mol]       0.00000000 [kJ/mol]

    Induction                      -0.00006814 [mEh]      -0.00004276 [kcal/mol]      -0.00017890 [kJ/mol]
      Ind20,r                      -0.00006381 [mEh]      -0.00004004 [kcal/mol]      -0.00016752 [kJ/mol]
      Exch-Ind20,r                  0.00000000 [mEh]       0.00000000 [kcal/mol]       0.00000000 [kJ/mol]
      delta HF,r (2)               -0.00000434 [mEh]      -0.00000272 [kcal/mol]      -0.00001138 [kJ/mol]

    Dispersion                     -0.00020921 [mEh]      -0.00013128 [kcal/mol]      -0.00054928 [kJ/mol]
      Disp20                       -0.00020921 [mEh]      -0.00013128 [kcal/mol]      -0.00054928 [kJ/mol]
      Exch-Disp20                   0.00000000 [mEh]       0.00000000 [kcal/mol]       0.00000000 [kJ/mol]
      Disp20 (SS)                  -0.00010460 [mEh]      -0.00006564 [kcal/mol]      -0.00027464 [kJ/mol]
      Disp20 (OS)                  -0.00010460 [mEh]      -0.00006564 [kcal/mol]      -0.00027464 [kJ/mol]
      Exch-Disp20 (SS)              0.00000000 [mEh]       0.00000000 [kcal/mol]       0.00000000 [kJ/mol]
      Exch-Disp20 (OS)              0.00000000 [mEh]       0.00000000 [kcal/mol]       0.00000000 [kJ/mol]

  Total HF                          0.04015986 [mEh]       0.02520069 [kcal/mol]       0.10543970 [kJ/mol]
  Total SAPT0                       0.03995065 [mEh]       0.02506941 [kcal/mol]       0.10489042 [kJ/mol]

  Special recipe for scaled SAPT0 (see Manual):
    Electrostatics sSAPT0           0.04022800 [mEh]       0.02524345 [kcal/mol]       0.10561861 [kJ/mol]
    Exchange sSAPT0                 0.00000000 [mEh]       0.00000000 [kcal/mol]       0.00000000 [kJ/mol]
    Induction sSAPT0               -0.00006814 [mEh]      -0.00004276 [kcal/mol]      -0.00017890 [kJ/mol]
    Dispersion sSAPT0              -0.00020921 [mEh]      -0.00013128 [kcal/mol]      -0.00054928 [kJ/mol]
  Total sSAPT0                      0.03995065 [mEh]       0.02506941 [kcal/mol]       0.10489042 [kJ/mol]
  --------------------------------------------------------------------------------------------------------

*** Psi4 exiting successfully. Buy a developer a beer!
