                               Psi4 1.4rc3

  ==> Input File <==

--------------------------------------------------------------------------
# PSI4 file produced by CrystaLattE

# Generated from:               imidazole.xyz
# Psithon input for N-mer:      2mer-0+25
# Number of atoms per monomer:  [9, 9]
# Number of replicas:           2
# COM priority:                 1.579120961913e-04
# Minimum COM separations:      9.790
# Separation priority:          5.131623536850e-04
# Minimum monomer separations:  6.610
# Cutoff priority:              4.108403128144e-05
# Nuclear repulsion energy:     398.84229767435806

memory 7 GB

molecule Dimer_0_25 {
  N           -4.29309621      -3.06837431       5.30516231
  N           -2.15847371      -2.92627296       1.72037448
  H           -0.02545587      -6.35903575       2.22046452
  H           -2.68566968      -6.53260241       6.61445954
  H           -4.74388423      -0.00609006       2.75615968
  H           -1.41045540      -2.24723147       0.00000000
  C           -1.43737991      -5.07504848       2.94065891
  C           -2.76900782      -5.14609916       5.13522880
  C           -3.85955036      -1.77728198       3.21093411
--
  N            4.67127568      -3.06837431     -10.87898141
  N            6.80589818      -2.92627296     -14.46376924
  H            8.93891602      -6.35903575     -13.96367920
  H            6.27870221      -6.53260241      -9.56968418
  H            4.22048766      -0.00609006     -13.42798405
  H            7.55391648      -2.24723147     -16.18414372
  C            7.52699198      -5.07504848     -13.24348481
  C            6.19536407      -5.14609916     -11.04891492
  C            5.10482153      -1.77728198     -12.97320961
units = au
no_com
no_reorient
}

set {
  e_convergence 10
  d_convergence 10
  scf_type df
  mp2_type df
  cc_type df
  freeze_core true
}

energy('sapt0/aug-cc-pvdz')

--------------------------------------------------------------------------

  //              Dimer HF             //
    Molecular point group: c1
  Charge       = 0
  Multiplicity = 1
  Basis Set: AUG-CC-PVDZ
    Blend: AUG-CC-PVDZ
  Basis Set: (AUG-CC-PVDZ AUX)
    Blend: AUG-CC-PVDZ-JKFIT
  @DF-RHF Final Energy:  -449.68838648913732
    Total Energy =                       -449.6883864891373150
  //            Monomer A HF           //
    Molecular point group: c1
  Multiplicity = 1
  Basis Set: AUG-CC-PVDZ
    Blend: AUG-CC-PVDZ
  Basis Set: (AUG-CC-PVDZ AUX)
    Blend: AUG-CC-PVDZ-JKFIT
  @DF-RHF Final Energy:  -224.84370439296575
    Total Energy =                       -224.8437043929657477
  //            Monomer B HF           //
    Molecular point group: c1

    Geometry (in Bohr), charge = 0, multiplicity = 1:

       Center              X                  Y                   Z               Mass
    ------------   -----------------  -----------------  -----------------  -----------------
      Gh(N)          -4.293096210000    -3.068374310000     5.305162310000    14.003074004430
      Gh(N)          -2.158473710000    -2.926272960000     1.720374480000    14.003074004430
      Gh(H)          -0.025455870000    -6.359035750000     2.220464520000     1.007825032230
      Gh(H)          -2.685669680000    -6.532602410000     6.614459540000     1.007825032230
      Gh(H)          -4.743884230000    -0.006090060000     2.756159680000     1.007825032230
      Gh(H)          -1.410455400000    -2.247231470000     0.000000000000     1.007825032230
      Gh(C)          -1.437379910000    -5.075048480000     2.940658910000    12.000000000000
      Gh(C)          -2.769007820000    -5.146099160000     5.135228800000    12.000000000000
      Gh(C)          -3.859550360000    -1.777281980000     3.210934110000    12.000000000000
         N            4.671275680000    -3.068374310000   -10.878981410000    14.003074004430
         N            6.805898180000    -2.926272960000   -14.463769240000    14.003074004430
         H            8.938916020000    -6.359035750000   -13.963679200000     1.007825032230
         H            6.278702210000    -6.532602410000    -9.569684180000     1.007825032230
         H            4.220487660000    -0.006090060000   -13.427984050000     1.007825032230
         H            7.553916480000    -2.247231470000   -16.184143720000     1.007825032230
         C            7.526991980000    -5.075048480000   -13.243484810000    12.000000000000
         C            6.195364070000    -5.146099160000   -11.048914920000    12.000000000000
         C            5.104821530000    -1.777281980000   -12.973209610000    12.000000000000

  Charge       = 0
  Multiplicity = 1
  Basis Set: AUG-CC-PVDZ
    Blend: AUG-CC-PVDZ
  Basis Set: (AUG-CC-PVDZ AUX)
    Blend: AUG-CC-PVDZ-JKFIT

    Orbital Energies [Eh]
    ---------------------

    Doubly Occupied:

       1A    -15.637072     2A    -15.551219     3A    -11.300915
       4A    -11.263159     5A    -11.245646     6A     -1.352867
       7A     -1.169100     8A     -1.012098     9A     -0.824390
      10A     -0.803732    11A     -0.760667    12A     -0.610096
      13A     -0.603958    14A     -0.601923    15A     -0.570944
      16A     -0.435483    17A     -0.400465    18A     -0.320685

  @DF-RHF Final Energy:  -224.84370762758303

   => Energetics <=

    Nuclear Repulsion Energy =            164.0866959989803320
    One-Electron Energy =                -628.9319673849036008
    Two-Electron Energy =                 240.0015637583402679
    Total Energy =                       -224.8437076275830293

  Dipole Moment: [D]
     X:     2.0431      Y:     0.4150      Z:    -3.3867     Total:     3.9770

    SAPT Results
  --------------------------------------------------------------------------------------------------------
    Electrostatics                 -0.95553822 [mEh]      -0.59960928 [kcal/mol]      -2.50876524 [kJ/mol]
      Elst10,r                     -0.95553822 [mEh]      -0.59960928 [kcal/mol]      -2.50876524 [kJ/mol]

    Exchange                        0.00000377 [mEh]       0.00000236 [kcal/mol]       0.00000989 [kJ/mol]
      Exch10                        0.00000377 [mEh]       0.00000236 [kcal/mol]       0.00000989 [kJ/mol]
      Exch10(S^2)                   0.00000377 [mEh]       0.00000236 [kcal/mol]       0.00000989 [kJ/mol]

    Induction                      -0.01893414 [mEh]      -0.01188135 [kcal/mol]      -0.04971157 [kJ/mol]
      Ind20,r                      -0.01804305 [mEh]      -0.01132218 [kcal/mol]      -0.04737201 [kJ/mol]
      Exch-Ind20,r                  0.00000763 [mEh]       0.00000479 [kcal/mol]       0.00002004 [kJ/mol]
      delta HF,r (2)               -0.00089873 [mEh]      -0.00056396 [kcal/mol]      -0.00235961 [kJ/mol]

    Dispersion                     -0.04650751 [mEh]      -0.02918390 [kcal/mol]      -0.12210545 [kJ/mol]
      Disp20                       -0.04650866 [mEh]      -0.02918463 [kcal/mol]      -0.12210848 [kJ/mol]
      Exch-Disp20                   0.00000115 [mEh]       0.00000072 [kcal/mol]       0.00000303 [kJ/mol]
      Disp20 (SS)                  -0.02325433 [mEh]      -0.01459231 [kcal/mol]      -0.06105424 [kJ/mol]
      Disp20 (OS)                  -0.02325433 [mEh]      -0.01459231 [kcal/mol]      -0.06105424 [kJ/mol]
      Exch-Disp20 (SS)              0.00000095 [mEh]       0.00000060 [kcal/mol]       0.00000249 [kJ/mol]
      Exch-Disp20 (OS)              0.00000020 [mEh]       0.00000013 [kcal/mol]       0.00000053 [kJ/mol]

  Total HF                         -0.97446859 [mEh]      -0.61148827 [kcal/mol]      -2.55846693 [kJ/mol]
  Total SAPT0                      -1.02097610 [mEh]      -0.64067218 [kcal/mol]      -2.68057238 [kJ/mol]

  Special recipe for scaled SAPT0 (see Manual):
    Electrostatics sSAPT0          -0.95553822 [mEh]      -0.59960928 [kcal/mol]      -2.50876524 [kJ/mol]
    Exchange sSAPT0                 0.00000377 [mEh]       0.00000236 [kcal/mol]       0.00000989 [kJ/mol]
    Induction sSAPT0               -0.01893414 [mEh]      -0.01188135 [kcal/mol]      -0.04971157 [kJ/mol]
    Dispersion sSAPT0              -0.04650751 [mEh]      -0.02918390 [kcal/mol]      -0.12210545 [kJ/mol]
  Total sSAPT0                     -1.02097610 [mEh]      -0.64067218 [kcal/mol]      -2.68057238 [kJ/mol]
  --------------------------------------------------------------------------------------------------------

*** Psi4 exiting successfully. Buy a developer a beer!
