                               Psi4 1.4rc3

  ==> Input File <==

--------------------------------------------------------------------------
# PSI4 file produced by CrystaLattE

# Generated from:               imidazole.xyz
# Psithon input for N-mer:      2mer-0+292
# Number of atoms per monomer:  [9, 9]
# Number of replicas:           2
# COM priority:                 2.210790098303e-05
# Minimum COM separations:      18.855
# Separation priority:          4.081384208413e-05
# Minimum monomer separations:  15.370
# Cutoff priority:              1.405216712783e-06
# Nuclear repulsion energy:     364.5753849612993

memory 7 GB

molecule Dimer_0_292 {
  N           -4.29309621      -3.06837431       5.30516231
  N           -2.15847371      -2.92627296       1.72037448
  H           -0.02545587      -6.35903575       2.22046452
  H           -2.68566968      -6.53260241       6.61445954
  H           -4.74388423      -0.00609006       2.75615968
  H           -1.41045540      -2.24723147       0.00000000
  C           -1.43737991      -5.07504848       2.94065891
  C           -2.76900782      -5.14609916       5.13522880
  C           -3.85955036      -1.77728198       3.21093411
--
  N          -13.25746810      27.38191658      21.48930603
  N          -11.12284560      27.52401794      17.90451820
  H           -8.98982776      24.09125515      18.40460824
  H          -11.65004157      23.91768849      22.79860326
  H          -13.70825611      30.44420084      18.94030340
  H          -10.37482729      28.20305943      16.18414372
  C          -10.40175180      25.37524241      19.12480264
  C          -11.73337971      25.30419173      21.31937252
  C          -12.82392225      28.67300892      19.39507784
units = au
no_com
no_reorient
}

set {
  e_convergence 10
  d_convergence 10
  scf_type df
  mp2_type df
  cc_type df
  freeze_core true
}

energy('sapt0/aug-cc-pvdz')

--------------------------------------------------------------------------

  //              Dimer HF             //
    Molecular point group: c1
  Charge       = 0
  Multiplicity = 1
  Basis Set: AUG-CC-PVDZ
    Blend: AUG-CC-PVDZ
  Basis Set: (AUG-CC-PVDZ AUX)
    Blend: AUG-CC-PVDZ-JKFIT
  @DF-RHF Final Energy:  -449.68736633627810
    Total Energy =                       -449.6873663362780462
  //            Monomer A HF           //
    Molecular point group: c1
  Multiplicity = 1
  Basis Set: AUG-CC-PVDZ
    Blend: AUG-CC-PVDZ
  Basis Set: (AUG-CC-PVDZ AUX)
    Blend: AUG-CC-PVDZ-JKFIT
  @DF-RHF Final Energy:  -224.84369627852104
    Total Energy =                       -224.8436962785210369
  //            Monomer B HF           //
    Molecular point group: c1

    Geometry (in Bohr), charge = 0, multiplicity = 1:

       Center              X                  Y                   Z               Mass
    ------------   -----------------  -----------------  -----------------  -----------------
      Gh(N)          -4.293096210000    -3.068374310000     5.305162310000    14.003074004430
      Gh(N)          -2.158473710000    -2.926272960000     1.720374480000    14.003074004430
      Gh(H)          -0.025455870000    -6.359035750000     2.220464520000     1.007825032230
      Gh(H)          -2.685669680000    -6.532602410000     6.614459540000     1.007825032230
      Gh(H)          -4.743884230000    -0.006090060000     2.756159680000     1.007825032230
      Gh(H)          -1.410455400000    -2.247231470000     0.000000000000     1.007825032230
      Gh(C)          -1.437379910000    -5.075048480000     2.940658910000    12.000000000000
      Gh(C)          -2.769007820000    -5.146099160000     5.135228800000    12.000000000000
      Gh(C)          -3.859550360000    -1.777281980000     3.210934110000    12.000000000000
         N          -13.257468100000    27.381916580000    21.489306030000    14.003074004430
         N          -11.122845600000    27.524017940000    17.904518200000    14.003074004430
         H           -8.989827760000    24.091255150000    18.404608240000     1.007825032230
         H          -11.650041570000    23.917688490000    22.798603260000     1.007825032230
         H          -13.708256110000    30.444200840000    18.940303400000     1.007825032230
         H          -10.374827290000    28.203059430000    16.184143720000     1.007825032230
         C          -10.401751800000    25.375242410000    19.124802640000    12.000000000000
         C          -11.733379710000    25.304191730000    21.319372520000    12.000000000000
         C          -12.823922250000    28.673008920000    19.395077840000    12.000000000000

  Charge       = 0
  Multiplicity = 1
  Basis Set: AUG-CC-PVDZ
    Blend: AUG-CC-PVDZ
  Basis Set: (AUG-CC-PVDZ AUX)
    Blend: AUG-CC-PVDZ-JKFIT

    Orbital Energies [Eh]
    ---------------------

    Doubly Occupied:

       1A    -15.637071     2A    -15.551216     3A    -11.300916
       4A    -11.263160     5A    -11.245653     6A     -1.352867
       7A     -1.169098     8A     -1.012098     9A     -0.824390
      10A     -0.803731    11A     -0.760666    12A     -0.610096
      13A     -0.603958    14A     -0.601922    15A     -0.570942
      16A     -0.435483    17A     -0.400464    18A     -0.320685

  @DF-RHF Final Energy:  -224.84369627833627

   => Energetics <=

    Nuclear Repulsion Energy =            164.0866959325745142
    One-Electron Energy =                -628.9319561868837809
    Two-Electron Energy =                 240.0015639759729993
    Total Energy =                       -224.8436962783362674

  Dipole Moment: [D]
     X:     2.0431      Y:     0.4150      Z:    -3.3867     Total:     3.9769

    SAPT Results
  --------------------------------------------------------------------------------------------------------
    Electrostatics                  0.02630161 [mEh]       0.01650451 [kcal/mol]       0.06905487 [kJ/mol]
      Elst10,r                      0.02630161 [mEh]       0.01650451 [kcal/mol]       0.06905487 [kJ/mol]

    Exchange                        0.00000000 [mEh]       0.00000000 [kcal/mol]       0.00000000 [kJ/mol]
      Exch10                        0.00000000 [mEh]       0.00000000 [kcal/mol]       0.00000000 [kJ/mol]
      Exch10(S^2)                   0.00000000 [mEh]       0.00000000 [kcal/mol]       0.00000000 [kJ/mol]

    Induction                      -0.00008103 [mEh]      -0.00005085 [kcal/mol]      -0.00021275 [kJ/mol]
      Ind20,r                      -0.00009628 [mEh]      -0.00006042 [kcal/mol]      -0.00025279 [kJ/mol]
      Exch-Ind20,r                  0.00000000 [mEh]       0.00000000 [kcal/mol]       0.00000000 [kJ/mol]
      delta HF,r (2)                0.00001525 [mEh]       0.00000957 [kcal/mol]       0.00004005 [kJ/mol]

    Dispersion                     -0.00065411 [mEh]      -0.00041046 [kcal/mol]      -0.00171737 [kJ/mol]
      Disp20                       -0.00065411 [mEh]      -0.00041046 [kcal/mol]      -0.00171737 [kJ/mol]
      Exch-Disp20                   0.00000000 [mEh]       0.00000000 [kcal/mol]       0.00000000 [kJ/mol]
      Disp20 (SS)                  -0.00032706 [mEh]      -0.00020523 [kcal/mol]      -0.00085868 [kJ/mol]
      Disp20 (OS)                  -0.00032706 [mEh]      -0.00020523 [kcal/mol]      -0.00085868 [kJ/mol]
      Exch-Disp20 (SS)              0.00000000 [mEh]       0.00000000 [kcal/mol]       0.00000000 [kJ/mol]
      Exch-Disp20 (OS)              0.00000000 [mEh]       0.00000000 [kcal/mol]       0.00000000 [kJ/mol]

  Total HF                          0.02622058 [mEh]       0.01645366 [kcal/mol]       0.06884212 [kJ/mol]
  Total SAPT0                       0.02556647 [mEh]       0.01604320 [kcal/mol]       0.06712475 [kJ/mol]

  Special recipe for scaled SAPT0 (see Manual):
    Electrostatics sSAPT0           0.02630161 [mEh]       0.01650451 [kcal/mol]       0.06905487 [kJ/mol]
    Exchange sSAPT0                 0.00000000 [mEh]       0.00000000 [kcal/mol]       0.00000000 [kJ/mol]
    Induction sSAPT0               -0.00008103 [mEh]      -0.00005085 [kcal/mol]      -0.00021275 [kJ/mol]
    Dispersion sSAPT0              -0.00065411 [mEh]      -0.00041046 [kcal/mol]      -0.00171737 [kJ/mol]
  Total sSAPT0                      0.02556647 [mEh]       0.01604320 [kcal/mol]       0.06712475 [kJ/mol]
  --------------------------------------------------------------------------------------------------------

*** Psi4 exiting successfully. Buy a developer a beer!
