                               Psi4 1.4rc3

  ==> Input File <==

--------------------------------------------------------------------------
# PSI4 file produced by CrystaLattE

# Generated from:               imidazole.xyz
# Psithon input for N-mer:      2mer-0+14
# Number of atoms per monomer:  [9, 9]
# Number of replicas:           2
# COM priority:                 1.213448972116e-03
# Minimum COM separations:      4.961
# Separation priority:          8.282638718949e-03
# Minimum monomer separations:  2.615
# Cutoff priority:              1.675810694649e-03
# Nuclear repulsion energy:     464.6797004228692

memory 7 GB

molecule Dimer_0_14 {
  N           -4.29309621      -3.06837431       5.30516231
  N           -2.15847371      -2.92627296       1.72037448
  H           -0.02545587      -6.35903575       2.22046452
  H           -2.68566968      -6.53260241       6.61445954
  H           -4.74388423      -0.00609006       2.75615968
  H           -1.41045540      -2.24723147       0.00000000
  C           -1.43737991      -5.07504848       2.94065891
  C           -2.76900782      -5.14609916       5.13522880
  C           -3.85955036      -1.77728198       3.21093411
--
  N           -9.21198656       2.00667417       3.39867018
  N          -11.34660906       2.14877553       6.98345802
  H          -13.47962690      -1.28398727       6.48336797
  H          -10.81941309      -1.45755392       2.08937295
  H           -8.76119855       5.06895842       5.94767282
  H          -12.09462737       2.82781701       8.70383249
  C          -12.06770286      -0.00000000       5.76317358
  C          -10.73607495      -0.07105068       3.56860369
  C           -9.64553241       3.29776650       5.49289838
units = au
no_com
no_reorient
}

set {
  e_convergence 10
  d_convergence 10
  scf_type df
  mp2_type df
  cc_type df
  freeze_core true
}

energy('sapt0/aug-cc-pvdz')

--------------------------------------------------------------------------

  //              Dimer HF             //
    Molecular point group: c1
  Charge       = 0
  Multiplicity = 1
  Basis Set: AUG-CC-PVDZ
    Blend: AUG-CC-PVDZ
  Basis Set: (AUG-CC-PVDZ AUX)
    Blend: AUG-CC-PVDZ-JKFIT
  @DF-RHF Final Energy:  -449.68899644375114
    Total Energy =                       -449.6889964437511935
  //            Monomer A HF           //
    Molecular point group: c1
  Multiplicity = 1
  Basis Set: AUG-CC-PVDZ
    Blend: AUG-CC-PVDZ
  Basis Set: (AUG-CC-PVDZ AUX)
    Blend: AUG-CC-PVDZ-JKFIT
  @DF-RHF Final Energy:  -224.84389666405562
    Total Energy =                       -224.8438966640556202
  //            Monomer B HF           //
    Molecular point group: c1

    Geometry (in Bohr), charge = 0, multiplicity = 1:

       Center              X                  Y                   Z               Mass
    ------------   -----------------  -----------------  -----------------  -----------------
      Gh(N)          -4.293096210000    -3.068374310000     5.305162310000    14.003074004430
      Gh(N)          -2.158473710000    -2.926272960000     1.720374480000    14.003074004430
      Gh(H)          -0.025455870000    -6.359035750000     2.220464520000     1.007825032230
      Gh(H)          -2.685669680000    -6.532602410000     6.614459540000     1.007825032230
      Gh(H)          -4.743884230000    -0.006090060000     2.756159680000     1.007825032230
      Gh(H)          -1.410455400000    -2.247231470000     0.000000000000     1.007825032230
      Gh(C)          -1.437379910000    -5.075048480000     2.940658910000    12.000000000000
      Gh(C)          -2.769007820000    -5.146099160000     5.135228800000    12.000000000000
      Gh(C)          -3.859550360000    -1.777281980000     3.210934110000    12.000000000000
         N           -9.211986560000     2.006674170000     3.398670180000    14.003074004430
         N          -11.346609060000     2.148775530000     6.983458020000    14.003074004430
         H          -13.479626900000    -1.283987270000     6.483367970000     1.007825032230
         H          -10.819413090000    -1.457553920000     2.089372950000     1.007825032230
         H           -8.761198550000     5.068958420000     5.947672820000     1.007825032230
         H          -12.094627370000     2.827817010000     8.703832490000     1.007825032230
         C          -12.067702860000     0.000000000000     5.763173580000    12.000000000000
         C          -10.736074950000    -0.071050680000     3.568603690000    12.000000000000
         C           -9.645532410000     3.297766500000     5.492898380000    12.000000000000

  Charge       = 0
  Multiplicity = 1
  Basis Set: AUG-CC-PVDZ
    Blend: AUG-CC-PVDZ
  Basis Set: (AUG-CC-PVDZ AUX)
    Blend: AUG-CC-PVDZ-JKFIT

    Orbital Energies [Eh]
    ---------------------

    Doubly Occupied:

       1A    -15.637083     2A    -15.551297     3A    -11.300871
       4A    -11.263142     5A    -11.245620     6A     -1.352840
       7A     -1.169072     8A     -1.012076     9A     -0.824363
      10A     -0.803713    11A     -0.760651    12A     -0.610081
      13A     -0.603954    14A     -0.601902    15A     -0.570929
      16A     -0.435471    17A     -0.400453    18A     -0.320684

  @DF-RHF Final Energy:  -224.84394842603533

   => Energetics <=

    Nuclear Repulsion Energy =            164.0866958834631077
    One-Electron Energy =                -628.9328792807571062
    Two-Electron Energy =                 240.0022349712586731
    Total Energy =                       -224.8439484260353254

  Dipole Moment: [D]
     X:    -2.0378      Y:     0.4141      Z:     3.3830     Total:     3.9710

    SAPT Results
  --------------------------------------------------------------------------------------------------------
    Electrostatics                 -3.67580007 [mEh]      -2.30659937 [kcal/mol]      -9.65081175 [kJ/mol]
      Elst10,r                     -3.67580007 [mEh]      -2.30659937 [kcal/mol]      -9.65081175 [kJ/mol]

    Exchange                        3.75136331 [mEh]       2.35401602 [kcal/mol]       9.84920302 [kJ/mol]
      Exch10                        3.75136331 [mEh]       2.35401602 [kcal/mol]       9.84920302 [kJ/mol]
      Exch10(S^2)                   3.74210062 [mEh]       2.34820359 [kcal/mol]       9.82488382 [kJ/mol]

    Induction                      -1.22691691 [mEh]      -0.76990198 [kcal/mol]      -3.22126989 [kJ/mol]
      Ind20,r                      -1.69699753 [mEh]      -1.06488203 [kcal/mol]      -4.45546640 [kJ/mol]
      Exch-Ind20,r                  0.86001151 [mEh]       0.53966537 [kcal/mol]       2.25795992 [kJ/mol]
      delta HF,r (2)               -0.38993089 [mEh]      -0.24468533 [kcal/mol]      -1.02376341 [kJ/mol]

    Dispersion                     -4.07915328 [mEh]      -2.55970733 [kcal/mol]     -10.70981546 [kJ/mol]
      Disp20                       -4.50550624 [mEh]      -2.82724785 [kcal/mol]     -11.82920499 [kJ/mol]
      Exch-Disp20                   0.42635295 [mEh]       0.26754052 [kcal/mol]       1.11938953 [kJ/mol]
      Disp20 (SS)                  -2.25275312 [mEh]      -1.41362392 [kcal/mol]      -5.91460250 [kJ/mol]
      Disp20 (OS)                  -2.25275312 [mEh]      -1.41362392 [kcal/mol]      -5.91460250 [kJ/mol]
      Exch-Disp20 (SS)              0.27074058 [mEh]       0.16989228 [kcal/mol]       0.71082928 [kJ/mol]
      Exch-Disp20 (OS)              0.15561238 [mEh]       0.09764824 [kcal/mol]       0.40856024 [kJ/mol]

  Total HF                         -1.15135366 [mEh]      -0.72248533 [kcal/mol]      -3.02287862 [kJ/mol]
  Total SAPT0                      -5.23050694 [mEh]      -3.28219266 [kcal/mol]     -13.73269408 [kJ/mol]

  Special recipe for scaled SAPT0 (see Manual):
    Electrostatics sSAPT0          -3.67580007 [mEh]      -2.30659937 [kcal/mol]      -9.65081175 [kJ/mol]
    Exchange sSAPT0                 3.75136331 [mEh]       2.35401602 [kcal/mol]       9.84920302 [kJ/mol]
    Induction sSAPT0               -1.22051481 [mEh]      -0.76588461 [kcal/mol]      -3.20446120 [kJ/mol]
    Dispersion sSAPT0              -4.07597943 [mEh]      -2.55771570 [kcal/mol]     -10.70148251 [kJ/mol]
  Total sSAPT0                     -5.22093099 [mEh]      -3.27618366 [kcal/mol]     -13.70755243 [kJ/mol]
  --------------------------------------------------------------------------------------------------------

*** Psi4 exiting successfully. Buy a developer a beer!
