                               Psi4 1.4rc3

  ==> Input File <==

--------------------------------------------------------------------------
# PSI4 file produced by CrystaLattE

# Generated from:               imidazole.xyz
# Psithon input for N-mer:      2mer-0+559
# Number of atoms per monomer:  [9, 9]
# Number of replicas:           2
# COM priority:                 1.624792437886e-05
# Minimum COM separations:      20.893
# Separation priority:          2.274765165344e-05
# Minimum monomer separations:  18.676
# Cutoff priority:              6.445383437393e-07
# Nuclear repulsion energy:     360.91168683199925

memory 7 GB

molecule Dimer_0_559 {
  N           -4.29309621      -3.06837431       5.30516231
  N           -2.15847371      -2.92627296       1.72037448
  H           -0.02545587      -6.35903575       2.22046452
  H           -2.68566968      -6.53260241       6.61445954
  H           -4.74388423      -0.00609006       2.75615968
  H           -1.41045540      -2.24723147       0.00000000
  C           -1.43737991      -5.07504848       2.94065891
  C           -2.76900782      -5.14609916       5.13522880
  C           -3.85955036      -1.77728198       3.21093411
--
  N          -37.86854942      12.15677114       3.39867018
  N          -40.00317192      12.29887249       6.98345802
  H          -42.13618976       8.86610970       6.48336797
  H          -39.47597595       8.69254304       2.08937295
  H          -37.41776140      15.21905539       5.94767282
  H          -40.75119022      12.97791398       8.70383249
  C          -40.72426571      10.15009697       5.76317358
  C          -39.39263781      10.07904629       3.56860369
  C          -38.30209527      13.44786347       5.49289838
units = au
no_com
no_reorient
}

set {
  e_convergence 10
  d_convergence 10
  scf_type df
  mp2_type df
  cc_type df
  freeze_core true
}

energy('sapt0/aug-cc-pvdz')

--------------------------------------------------------------------------

  //              Dimer HF             //
    Molecular point group: c1
  Charge       = 0
  Multiplicity = 1
  Basis Set: AUG-CC-PVDZ
    Blend: AUG-CC-PVDZ
  Basis Set: (AUG-CC-PVDZ AUX)
    Blend: AUG-CC-PVDZ-JKFIT
  @DF-RHF Final Energy:  -449.68739782781250
    Total Energy =                       -449.6873978278124468
  //            Monomer A HF           //
    Molecular point group: c1
  Multiplicity = 1
  Basis Set: AUG-CC-PVDZ
    Blend: AUG-CC-PVDZ
  Basis Set: (AUG-CC-PVDZ AUX)
    Blend: AUG-CC-PVDZ-JKFIT
  @DF-RHF Final Energy:  -224.84369627823349
    Total Energy =                       -224.8436962782334945
  //            Monomer B HF           //
    Molecular point group: c1

    Geometry (in Bohr), charge = 0, multiplicity = 1:

       Center              X                  Y                   Z               Mass
    ------------   -----------------  -----------------  -----------------  -----------------
      Gh(N)          -4.293096210000    -3.068374310000     5.305162310000    14.003074004430
      Gh(N)          -2.158473710000    -2.926272960000     1.720374480000    14.003074004430
      Gh(H)          -0.025455870000    -6.359035750000     2.220464520000     1.007825032230
      Gh(H)          -2.685669680000    -6.532602410000     6.614459540000     1.007825032230
      Gh(H)          -4.743884230000    -0.006090060000     2.756159680000     1.007825032230
      Gh(H)          -1.410455400000    -2.247231470000     0.000000000000     1.007825032230
      Gh(C)          -1.437379910000    -5.075048480000     2.940658910000    12.000000000000
      Gh(C)          -2.769007820000    -5.146099160000     5.135228800000    12.000000000000
      Gh(C)          -3.859550360000    -1.777281980000     3.210934110000    12.000000000000
         N          -37.868549420000    12.156771140000     3.398670180000    14.003074004430
         N          -40.003171920000    12.298872490000     6.983458020000    14.003074004430
         H          -42.136189760000     8.866109700000     6.483367970000     1.007825032230
         H          -39.475975950000     8.692543040000     2.089372950000     1.007825032230
         H          -37.417761400000    15.219055390000     5.947672820000     1.007825032230
         H          -40.751190220000    12.977913980000     8.703832490000     1.007825032230
         C          -40.724265710000    10.150096970000     5.763173580000    12.000000000000
         C          -39.392637810000    10.079046290000     3.568603690000    12.000000000000
         C          -38.302095270000    13.447863470000     5.492898380000    12.000000000000

  Charge       = 0
  Multiplicity = 1
  Basis Set: AUG-CC-PVDZ
    Blend: AUG-CC-PVDZ
  Basis Set: (AUG-CC-PVDZ AUX)
    Blend: AUG-CC-PVDZ-JKFIT

    Orbital Energies [Eh]
    ---------------------

    Doubly Occupied:

       1A    -15.637071     2A    -15.551216     3A    -11.300916
       4A    -11.263160     5A    -11.245653     6A     -1.352867
       7A     -1.169098     8A     -1.012098     9A     -0.824390
      10A     -0.803731    11A     -0.760666    12A     -0.610096
      13A     -0.603958    14A     -0.601922    15A     -0.570942
      16A     -0.435483    17A     -0.400464    18A     -0.320685

  @DF-RHF Final Energy:  -224.84369627799637

   => Energetics <=

    Nuclear Repulsion Energy =            164.0866959646065766
    One-Electron Energy =                -628.9319562380524076
    Two-Electron Energy =                 240.0015639954494588
    Total Energy =                       -224.8436962779963721

  Dipole Moment: [D]
     X:    -2.0431      Y:     0.4150      Z:     3.3867     Total:     3.9769

    SAPT Results
  --------------------------------------------------------------------------------------------------------
    Electrostatics                 -0.00522327 [mEh]      -0.00327765 [kcal/mol]      -0.01371368 [kJ/mol]
      Elst10,r                     -0.00522327 [mEh]      -0.00327765 [kcal/mol]      -0.01371368 [kJ/mol]

    Exchange                        0.00000000 [mEh]       0.00000000 [kcal/mol]       0.00000000 [kJ/mol]
      Exch10                        0.00000000 [mEh]       0.00000000 [kcal/mol]       0.00000000 [kJ/mol]
      Exch10(S^2)                   0.00000000 [mEh]       0.00000000 [kcal/mol]       0.00000000 [kJ/mol]

    Induction                      -0.00004832 [mEh]      -0.00003032 [kcal/mol]      -0.00012685 [kJ/mol]
      Ind20,r                      -0.00005406 [mEh]      -0.00003393 [kcal/mol]      -0.00014194 [kJ/mol]
      Exch-Ind20,r                  0.00000000 [mEh]       0.00000000 [kcal/mol]       0.00000000 [kJ/mol]
      delta HF,r (2)                0.00000575 [mEh]       0.00000361 [kcal/mol]       0.00001509 [kJ/mol]

    Dispersion                     -0.00030875 [mEh]      -0.00019374 [kcal/mol]      -0.00081063 [kJ/mol]
      Disp20                       -0.00030875 [mEh]      -0.00019374 [kcal/mol]      -0.00081063 [kJ/mol]
      Exch-Disp20                   0.00000000 [mEh]       0.00000000 [kcal/mol]       0.00000000 [kJ/mol]
      Disp20 (SS)                  -0.00015438 [mEh]      -0.00009687 [kcal/mol]      -0.00040531 [kJ/mol]
      Disp20 (OS)                  -0.00015438 [mEh]      -0.00009687 [kcal/mol]      -0.00040531 [kJ/mol]
      Exch-Disp20 (SS)              0.00000000 [mEh]       0.00000000 [kcal/mol]       0.00000000 [kJ/mol]
      Exch-Disp20 (OS)              0.00000000 [mEh]       0.00000000 [kcal/mol]       0.00000000 [kJ/mol]

  Total HF                         -0.00527158 [mEh]      -0.00330797 [kcal/mol]      -0.01384054 [kJ/mol]
  Total SAPT0                      -0.00558033 [mEh]      -0.00350171 [kcal/mol]      -0.01465117 [kJ/mol]

  Special recipe for scaled SAPT0 (see Manual):
    Electrostatics sSAPT0          -0.00522327 [mEh]      -0.00327765 [kcal/mol]      -0.01371368 [kJ/mol]
    Exchange sSAPT0                 0.00000000 [mEh]       0.00000000 [kcal/mol]       0.00000000 [kJ/mol]
    Induction sSAPT0               -0.00004832 [mEh]      -0.00003032 [kcal/mol]      -0.00012685 [kJ/mol]
    Dispersion sSAPT0              -0.00030875 [mEh]      -0.00019374 [kcal/mol]      -0.00081063 [kJ/mol]
  Total sSAPT0                     -0.00558033 [mEh]      -0.00350171 [kcal/mol]      -0.01465117 [kJ/mol]
  --------------------------------------------------------------------------------------------------------

*** Psi4 exiting successfully. Buy a developer a beer!
