                               Psi4 1.4rc3

  ==> Input File <==

--------------------------------------------------------------------------
# PSI4 file produced by CrystaLattE

# Generated from:               imidazole.xyz
# Psithon input for N-mer:      2mer-0+87
# Number of atoms per monomer:  [9, 9]
# Number of replicas:           1
# COM priority:                 3.809842311642e-05
# Minimum COM separations:      15.727
# Separation priority:          9.167007671114e-05
# Minimum monomer separations:  11.736
# Cutoff priority:              4.133362163949e-06
# Nuclear repulsion energy:     372.0293814532256

memory 7 GB

molecule Dimer_0_87 {
  N           -4.29309621      -3.06837431       5.30516231
  N           -2.15847371      -2.92627296       1.72037448
  H           -0.02545587      -6.35903575       2.22046452
  H           -2.68566968      -6.53260241       6.61445954
  H           -4.74388423      -0.00609006       2.75615968
  H           -1.41045540      -2.24723147       0.00000000
  C           -1.43737991      -5.07504848       2.94065891
  C           -2.76900782      -5.14609916       5.13522880
  C           -3.85955036      -1.77728198       3.21093411
--
  N            4.23457127      14.12182991     -20.87754540
  N            2.09994877      13.97972855     -17.29275757
  H           -0.03306907      17.41249134     -17.79284761
  H            2.62714474      17.58605800     -22.18684263
  H            4.68535929      11.05954565     -18.32854276
  H            1.35193047      13.30068706     -15.57238309
  C            1.37885497      16.12850408     -18.51304200
  C            2.71048288      16.19955476     -20.70761189
  C            3.80102542      12.83073757     -18.78331720
units = au
no_com
no_reorient
}

set {
  e_convergence 10
  d_convergence 10
  scf_type df
  mp2_type df
  cc_type df
  freeze_core true
}

energy('sapt0/aug-cc-pvdz')

--------------------------------------------------------------------------

  //              Dimer HF             //
    Molecular point group: c1
  Charge       = 0
  Multiplicity = 1
  Basis Set: AUG-CC-PVDZ
    Blend: AUG-CC-PVDZ
  Basis Set: (AUG-CC-PVDZ AUX)
    Blend: AUG-CC-PVDZ-JKFIT
  @DF-RHF Final Energy:  -449.68723165250759
    Total Energy =                       -449.6872316525075348
  //            Monomer A HF           //
    Molecular point group: c1
  Multiplicity = 1
  Basis Set: AUG-CC-PVDZ
    Blend: AUG-CC-PVDZ
  Basis Set: (AUG-CC-PVDZ AUX)
    Blend: AUG-CC-PVDZ-JKFIT
  @DF-RHF Final Energy:  -224.84369628287280
    Total Energy =                       -224.8436962828727985
  //            Monomer B HF           //
    Molecular point group: c1

    Geometry (in Bohr), charge = 0, multiplicity = 1:

       Center              X                  Y                   Z               Mass
    ------------   -----------------  -----------------  -----------------  -----------------
      Gh(N)          -4.293096210000    -3.068374310000     5.305162310000    14.003074004430
      Gh(N)          -2.158473710000    -2.926272960000     1.720374480000    14.003074004430
      Gh(H)          -0.025455870000    -6.359035750000     2.220464520000     1.007825032230
      Gh(H)          -2.685669680000    -6.532602410000     6.614459540000     1.007825032230
      Gh(H)          -4.743884230000    -0.006090060000     2.756159680000     1.007825032230
      Gh(H)          -1.410455400000    -2.247231470000     0.000000000000     1.007825032230
      Gh(C)          -1.437379910000    -5.075048480000     2.940658910000    12.000000000000
      Gh(C)          -2.769007820000    -5.146099160000     5.135228800000    12.000000000000
      Gh(C)          -3.859550360000    -1.777281980000     3.210934110000    12.000000000000
         N            4.234571270000    14.121829910000   -20.877545400000    14.003074004430
         N            2.099948770000    13.979728550000   -17.292757570000    14.003074004430
         H           -0.033069070000    17.412491340000   -17.792847610000     1.007825032230
         H            2.627144740000    17.586058000000   -22.186842630000     1.007825032230
         H            4.685359290000    11.059545650000   -18.328542760000     1.007825032230
         H            1.351930470000    13.300687060000   -15.572383090000     1.007825032230
         C            1.378854970000    16.128504080000   -18.513042000000    12.000000000000
         C            2.710482880000    16.199554760000   -20.707611890000    12.000000000000
         C            3.801025420000    12.830737570000   -18.783317200000    12.000000000000

  Charge       = 0
  Multiplicity = 1
  Basis Set: AUG-CC-PVDZ
    Blend: AUG-CC-PVDZ
  Basis Set: (AUG-CC-PVDZ AUX)
    Blend: AUG-CC-PVDZ-JKFIT

    Orbital Energies [Eh]
    ---------------------

    Doubly Occupied:

       1A    -15.637071     2A    -15.551216     3A    -11.300916
       4A    -11.263160     5A    -11.245653     6A     -1.352867
       7A     -1.169098     8A     -1.012098     9A     -0.824390
      10A     -0.803731    11A     -0.760666    12A     -0.610096
      13A     -0.603958    14A     -0.601922    15A     -0.570942
      16A     -0.435483    17A     -0.400464    18A     -0.320685

  @DF-RHF Final Energy:  -224.84369628300234

   => Energetics <=

    Nuclear Repulsion Energy =            164.0866958774809063
    One-Electron Energy =                -628.9319561215820613
    Two-Electron Energy =                 240.0015639610988103
    Total Energy =                       -224.8436962830023447

  Dipole Moment: [D]
     X:    -2.0431      Y:    -0.4150      Z:     3.3867     Total:     3.9769

    SAPT Results
  --------------------------------------------------------------------------------------------------------
    Electrostatics                  0.16170675 [mEh]       0.10147252 [kcal/mol]       0.42456101 [kJ/mol]
      Elst10,r                      0.16170675 [mEh]       0.10147252 [kcal/mol]       0.42456101 [kJ/mol]

    Exchange                        0.00000000 [mEh]       0.00000000 [kcal/mol]       0.00000000 [kJ/mol]
      Exch10                        0.00000000 [mEh]       0.00000000 [kcal/mol]       0.00000000 [kJ/mol]
      Exch10(S^2)                   0.00000000 [mEh]       0.00000000 [kcal/mol]       0.00000000 [kJ/mol]

    Induction                      -0.00079338 [mEh]      -0.00049786 [kcal/mol]      -0.00208303 [kJ/mol]
      Ind20,r                      -0.00082591 [mEh]      -0.00051827 [kcal/mol]      -0.00216844 [kJ/mol]
      Exch-Ind20,r                  0.00000001 [mEh]       0.00000000 [kcal/mol]       0.00000001 [kJ/mol]
      delta HF,r (2)                0.00003253 [mEh]       0.00002041 [kcal/mol]       0.00008540 [kJ/mol]

    Dispersion                     -0.00218558 [mEh]      -0.00137147 [kcal/mol]      -0.00573825 [kJ/mol]
      Disp20                       -0.00218558 [mEh]      -0.00137147 [kcal/mol]      -0.00573825 [kJ/mol]
      Exch-Disp20                   0.00000000 [mEh]       0.00000000 [kcal/mol]       0.00000000 [kJ/mol]
      Disp20 (SS)                  -0.00109279 [mEh]      -0.00068574 [kcal/mol]      -0.00286913 [kJ/mol]
      Disp20 (OS)                  -0.00109279 [mEh]      -0.00068574 [kcal/mol]      -0.00286913 [kJ/mol]
      Exch-Disp20 (SS)              0.00000000 [mEh]       0.00000000 [kcal/mol]       0.00000000 [kJ/mol]
      Exch-Disp20 (OS)              0.00000000 [mEh]       0.00000000 [kcal/mol]       0.00000000 [kJ/mol]

  Total HF                          0.16091337 [mEh]       0.10097466 [kcal/mol]       0.42247799 [kJ/mol]
  Total SAPT0                       0.15872778 [mEh]       0.09960319 [kcal/mol]       0.41673974 [kJ/mol]

  Special recipe for scaled SAPT0 (see Manual):
    Electrostatics sSAPT0           0.16170675 [mEh]       0.10147252 [kcal/mol]       0.42456101 [kJ/mol]
    Exchange sSAPT0                 0.00000000 [mEh]       0.00000000 [kcal/mol]       0.00000000 [kJ/mol]
    Induction sSAPT0               -0.00079338 [mEh]      -0.00049786 [kcal/mol]      -0.00208303 [kJ/mol]
    Dispersion sSAPT0              -0.00218558 [mEh]      -0.00137147 [kcal/mol]      -0.00573825 [kJ/mol]
  Total sSAPT0                      0.15872778 [mEh]       0.09960319 [kcal/mol]       0.41673974 [kJ/mol]
  --------------------------------------------------------------------------------------------------------

*** Psi4 exiting successfully. Buy a developer a beer!
