                               Psi4 1.4rc3

  ==> Input File <==

--------------------------------------------------------------------------
# PSI4 file produced by CrystaLattE

# Generated from:               imidazole.xyz
# Psithon input for N-mer:      2mer-0+67
# Number of atoms per monomer:  [9, 9]
# Number of replicas:           1
# COM priority:                 1.134794009234e-04
# Minimum COM separations:      10.930
# Separation priority:          1.180950860533e-04
# Minimum monomer separations:  10.786
# Cutoff priority:              5.793963690906e-06
# Nuclear repulsion energy:     390.1020266368232

memory 7 GB

molecule Dimer_0_67 {
  N           -4.29309621      -3.06837431       5.30516231
  N           -2.15847371      -2.92627296       1.72037448
  H           -0.02545587      -6.35903575       2.22046452
  H           -2.68566968      -6.53260241       6.61445954
  H           -4.74388423      -0.00609006       2.75615968
  H           -1.41045540      -2.24723147       0.00000000
  C           -1.43737991      -5.07504848       2.94065891
  C           -2.76900782      -5.14609916       5.13522880
  C           -3.85955036      -1.77728198       3.21093411
--
  N           14.96239035       3.97173294      11.49074204
  N           12.82776785       3.82963158      15.07552988
  H           10.69475001       7.26239438      14.57543984
  H           13.35496382       7.43596104      10.18144482
  H           15.41317837       0.90944869      14.03974468
  H           12.07974955       3.15059010      16.79590435
  C           12.10667405       5.97840711      13.85524544
  C           13.43830196       6.04945779      11.66067555
  C           14.52884450       2.68064061      13.58497024
units = au
no_com
no_reorient
}

set {
  e_convergence 10
  d_convergence 10
  scf_type df
  mp2_type df
  cc_type df
  freeze_core true
}

energy('sapt0/aug-cc-pvdz')

--------------------------------------------------------------------------

  //              Dimer HF             //
    Molecular point group: c1
  Charge       = 0
  Multiplicity = 1
  Basis Set: AUG-CC-PVDZ
    Blend: AUG-CC-PVDZ
  Basis Set: (AUG-CC-PVDZ AUX)
    Blend: AUG-CC-PVDZ-JKFIT
  @DF-RHF Final Energy:  -449.68760981232964
    Total Energy =                       -449.6876098123295833
  //            Monomer A HF           //
    Molecular point group: c1
  Multiplicity = 1
  Basis Set: AUG-CC-PVDZ
    Blend: AUG-CC-PVDZ
  Basis Set: (AUG-CC-PVDZ AUX)
    Blend: AUG-CC-PVDZ-JKFIT
  @DF-RHF Final Energy:  -224.84369654855794
    Total Energy =                       -224.8436965485579435
  //            Monomer B HF           //
    Molecular point group: c1

    Geometry (in Bohr), charge = 0, multiplicity = 1:

       Center              X                  Y                   Z               Mass
    ------------   -----------------  -----------------  -----------------  -----------------
      Gh(N)          -4.293096210000    -3.068374310000     5.305162310000    14.003074004430
      Gh(N)          -2.158473710000    -2.926272960000     1.720374480000    14.003074004430
      Gh(H)          -0.025455870000    -6.359035750000     2.220464520000     1.007825032230
      Gh(H)          -2.685669680000    -6.532602410000     6.614459540000     1.007825032230
      Gh(H)          -4.743884230000    -0.006090060000     2.756159680000     1.007825032230
      Gh(H)          -1.410455400000    -2.247231470000     0.000000000000     1.007825032230
      Gh(C)          -1.437379910000    -5.075048480000     2.940658910000    12.000000000000
      Gh(C)          -2.769007820000    -5.146099160000     5.135228800000    12.000000000000
      Gh(C)          -3.859550360000    -1.777281980000     3.210934110000    12.000000000000
         N           14.962390350000     3.971732940000    11.490742040000    14.003074004430
         N           12.827767850000     3.829631580000    15.075529880000    14.003074004430
         H           10.694750010000     7.262394380000    14.575439840000     1.007825032230
         H           13.354963820000     7.435961040000    10.181444820000     1.007825032230
         H           15.413178370000     0.909448690000    14.039744680000     1.007825032230
         H           12.079749550000     3.150590100000    16.795904350000     1.007825032230
         C           12.106674050000     5.978407110000    13.855245440000    12.000000000000
         C           13.438301960000     6.049457790000    11.660675550000    12.000000000000
         C           14.528844500000     2.680640610000    13.584970240000    12.000000000000

  Charge       = 0
  Multiplicity = 1
  Basis Set: AUG-CC-PVDZ
    Blend: AUG-CC-PVDZ
  Basis Set: (AUG-CC-PVDZ AUX)
    Blend: AUG-CC-PVDZ-JKFIT

    Orbital Energies [Eh]
    ---------------------

    Doubly Occupied:

       1A    -15.637071     2A    -15.551216     3A    -11.300916
       4A    -11.263159     5A    -11.245653     6A     -1.352867
       7A     -1.169098     8A     -1.012098     9A     -0.824389
      10A     -0.803731    11A     -0.760666    12A     -0.610096
      13A     -0.603958    14A     -0.601922    15A     -0.570942
      16A     -0.435483    17A     -0.400464    18A     -0.320685

  @DF-RHF Final Energy:  -224.84369654966397

   => Energetics <=

    Nuclear Repulsion Energy =            164.0866958745602346
    One-Electron Energy =                -628.9319588968578500
    Two-Electron Energy =                 240.0015664726336411
    Total Energy =                       -224.8436965496639743

  Dipole Moment: [D]
     X:    -2.0431      Y:    -0.4150      Z:     3.3867     Total:     3.9769

    SAPT Results
  --------------------------------------------------------------------------------------------------------
    Electrostatics                 -0.21512732 [mEh]      -0.13499443 [kcal/mol]      -0.56481671 [kJ/mol]
      Elst10,r                     -0.21512732 [mEh]      -0.13499443 [kcal/mol]      -0.56481671 [kJ/mol]

    Exchange                        0.00000008 [mEh]       0.00000005 [kcal/mol]       0.00000022 [kJ/mol]
      Exch10                        0.00000008 [mEh]       0.00000005 [kcal/mol]       0.00000022 [kJ/mol]
      Exch10(S^2)                   0.00000008 [mEh]       0.00000005 [kcal/mol]       0.00000022 [kJ/mol]

    Induction                      -0.00158687 [mEh]      -0.00099577 [kcal/mol]      -0.00416632 [kJ/mol]
      Ind20,r                      -0.00157710 [mEh]      -0.00098964 [kcal/mol]      -0.00414067 [kJ/mol]
      Exch-Ind20,r                  0.00000056 [mEh]       0.00000035 [kcal/mol]       0.00000147 [kJ/mol]
      delta HF,r (2)               -0.00001033 [mEh]      -0.00000648 [kcal/mol]      -0.00002712 [kJ/mol]

    Dispersion                     -0.01286843 [mEh]      -0.00807506 [kcal/mol]      -0.03378605 [kJ/mol]
      Disp20                       -0.01286849 [mEh]      -0.00807510 [kcal/mol]      -0.03378622 [kJ/mol]
      Exch-Disp20                   0.00000007 [mEh]       0.00000004 [kcal/mol]       0.00000018 [kJ/mol]
      Disp20 (SS)                  -0.00643425 [mEh]      -0.00403755 [kcal/mol]      -0.01689311 [kJ/mol]
      Disp20 (OS)                  -0.00643425 [mEh]      -0.00403755 [kcal/mol]      -0.01689311 [kJ/mol]
      Exch-Disp20 (SS)              0.00000005 [mEh]       0.00000003 [kcal/mol]       0.00000014 [kJ/mol]
      Exch-Disp20 (OS)              0.00000001 [mEh]       0.00000001 [kcal/mol]       0.00000003 [kJ/mol]

  Total HF                         -0.21671411 [mEh]      -0.13599016 [kcal/mol]      -0.56898281 [kJ/mol]
  Total SAPT0                      -0.22958253 [mEh]      -0.14406521 [kcal/mol]      -0.60276886 [kJ/mol]

  Special recipe for scaled SAPT0 (see Manual):
    Electrostatics sSAPT0          -0.21512732 [mEh]      -0.13499443 [kcal/mol]      -0.56481671 [kJ/mol]
    Exchange sSAPT0                 0.00000008 [mEh]       0.00000005 [kcal/mol]       0.00000022 [kJ/mol]
    Induction sSAPT0               -0.00158687 [mEh]      -0.00099577 [kcal/mol]      -0.00416632 [kJ/mol]
    Dispersion sSAPT0              -0.01286843 [mEh]      -0.00807506 [kcal/mol]      -0.03378605 [kJ/mol]
  Total sSAPT0                     -0.22958253 [mEh]      -0.14406521 [kcal/mol]      -0.60276886 [kJ/mol]
  --------------------------------------------------------------------------------------------------------

*** Psi4 exiting successfully. Buy a developer a beer!
