                               Psi4 1.4rc3

  ==> Input File <==

--------------------------------------------------------------------------
# PSI4 file produced by CrystaLattE

# Generated from:               imidazole.xyz
# Psithon input for N-mer:      2mer-0+13
# Number of atoms per monomer:  [9, 9]
# Number of replicas:           2
# COM priority:                 3.399520705538e-04
# Minimum COM separations:      7.582
# Separation priority:          7.461261992733e-04
# Minimum monomer separations:  5.834
# Cutoff priority:              6.767314913272e-05
# Nuclear repulsion energy:     417.69147534011654

memory 7 GB

molecule Dimer_0_13 {
  N           -4.29309621      -3.06837431       5.30516231
  N           -2.15847371      -2.92627296       1.72037448
  H           -0.02545587      -6.35903575       2.22046452
  H           -2.68566968      -6.53260241       6.61445954
  H           -4.74388423      -0.00609006       2.75615968
  H           -1.41045540      -2.24723147       0.00000000
  C           -1.43737991      -5.07504848       2.94065891
  C           -2.76900782      -5.14609916       5.13522880
  C           -3.85955036      -1.77728198       3.21093411
--
  N           10.03518522      -3.06837431       5.30516231
  N           12.16980772      -2.92627296       1.72037448
  H           14.30282556      -6.35903575       2.22046452
  H           11.64261175      -6.53260241       6.61445954
  H            9.58439720      -0.00609006       2.75615968
  H           12.91782602      -2.24723147       0.00000000
  C           12.89090152      -5.07504848       2.94065891
  C           11.55927361      -5.14609916       5.13522880
  C           10.46873107      -1.77728198       3.21093411
units = au
no_com
no_reorient
}

set {
  e_convergence 10
  d_convergence 10
  scf_type df
  mp2_type df
  cc_type df
  freeze_core true
}

energy('sapt0/aug-cc-pvdz')

--------------------------------------------------------------------------

  //              Dimer HF             //
    Molecular point group: c1
  Charge       = 0
  Multiplicity = 1
  Basis Set: AUG-CC-PVDZ
    Blend: AUG-CC-PVDZ
  Basis Set: (AUG-CC-PVDZ AUX)
    Blend: AUG-CC-PVDZ-JKFIT
  @DF-RHF Final Energy:  -449.68699670089688
    Total Energy =                       -449.6869967008968842
  //            Monomer A HF           //
    Molecular point group: c1
  Multiplicity = 1
  Basis Set: AUG-CC-PVDZ
    Blend: AUG-CC-PVDZ
  Basis Set: (AUG-CC-PVDZ AUX)
    Blend: AUG-CC-PVDZ-JKFIT
  @DF-RHF Final Energy:  -224.84371993433652
    Total Energy =                       -224.8437199343365194
  //            Monomer B HF           //
    Molecular point group: c1

    Geometry (in Bohr), charge = 0, multiplicity = 1:

       Center              X                  Y                   Z               Mass
    ------------   -----------------  -----------------  -----------------  -----------------
      Gh(N)          -4.293096210000    -3.068374310000     5.305162310000    14.003074004430
      Gh(N)          -2.158473710000    -2.926272960000     1.720374480000    14.003074004430
      Gh(H)          -0.025455870000    -6.359035750000     2.220464520000     1.007825032230
      Gh(H)          -2.685669680000    -6.532602410000     6.614459540000     1.007825032230
      Gh(H)          -4.743884230000    -0.006090060000     2.756159680000     1.007825032230
      Gh(H)          -1.410455400000    -2.247231470000     0.000000000000     1.007825032230
      Gh(C)          -1.437379910000    -5.075048480000     2.940658910000    12.000000000000
      Gh(C)          -2.769007820000    -5.146099160000     5.135228800000    12.000000000000
      Gh(C)          -3.859550360000    -1.777281980000     3.210934110000    12.000000000000
         N           10.035185220000    -3.068374310000     5.305162310000    14.003074004430
         N           12.169807720000    -2.926272960000     1.720374480000    14.003074004430
         H           14.302825560000    -6.359035750000     2.220464520000     1.007825032230
         H           11.642611750000    -6.532602410000     6.614459540000     1.007825032230
         H            9.584397200000    -0.006090060000     2.756159680000     1.007825032230
         H           12.917826020000    -2.247231470000     0.000000000000     1.007825032230
         C           12.890901520000    -5.075048480000     2.940658910000    12.000000000000
         C           11.559273610000    -5.146099160000     5.135228800000    12.000000000000
         C           10.468731070000    -1.777281980000     3.210934110000    12.000000000000

  Charge       = 0
  Multiplicity = 1
  Basis Set: AUG-CC-PVDZ
    Blend: AUG-CC-PVDZ
  Basis Set: (AUG-CC-PVDZ AUX)
    Blend: AUG-CC-PVDZ-JKFIT

    Orbital Energies [Eh]
    ---------------------

    Doubly Occupied:

       1A    -15.637086     2A    -15.551257     3A    -11.300924
       4A    -11.263165     5A    -11.245661     6A     -1.352876
       7A     -1.169112     8A     -1.012108     9A     -0.824399
      10A     -0.803741    11A     -0.760676    12A     -0.610106
      13A     -0.603962    14A     -0.601931    15A     -0.570956
      16A     -0.435502    17A     -0.400478    18A     -0.320691

  @DF-RHF Final Energy:  -224.84373298988868

   => Energetics <=

    Nuclear Repulsion Energy =            164.0866960044421887
    One-Electron Energy =                -628.9315959794018909
    Two-Electron Energy =                 240.0011669850710518
    Total Energy =                       -224.8437329898886787

  Dipole Moment: [D]
     X:     2.0409      Y:     0.4158      Z:    -3.3856     Total:     3.9749

    SAPT Results
  --------------------------------------------------------------------------------------------------------
    Electrostatics                  0.48124705 [mEh]       0.30198708 [kcal/mol]       1.26351395 [kJ/mol]
      Elst10,r                      0.48124705 [mEh]       0.30198708 [kcal/mol]       1.26351395 [kJ/mol]

    Exchange                        0.00065312 [mEh]       0.00040984 [kcal/mol]       0.00171477 [kJ/mol]
      Exch10                        0.00065312 [mEh]       0.00040984 [kcal/mol]       0.00171477 [kJ/mol]
      Exch10(S^2)                   0.00065312 [mEh]       0.00040984 [kcal/mol]       0.00171477 [kJ/mol]

    Induction                      -0.02567684 [mEh]      -0.01611246 [kcal/mol]      -0.06741454 [kJ/mol]
      Ind20,r                      -0.02607065 [mEh]      -0.01635958 [kcal/mol]      -0.06844849 [kJ/mol]
      Exch-Ind20,r                  0.00019831 [mEh]       0.00012444 [kcal/mol]       0.00052066 [kJ/mol]
      delta HF,r (2)                0.00019550 [mEh]       0.00012268 [kcal/mol]       0.00051328 [kJ/mol]

    Dispersion                     -0.16319099 [mEh]      -0.10240389 [kcal/mol]      -0.42845789 [kJ/mol]
      Disp20                       -0.16341024 [mEh]      -0.10254147 [kcal/mol]      -0.42903352 [kJ/mol]
      Exch-Disp20                   0.00021925 [mEh]       0.00013758 [kcal/mol]       0.00057563 [kJ/mol]
      Disp20 (SS)                  -0.08170512 [mEh]      -0.05127074 [kcal/mol]      -0.21451676 [kJ/mol]
      Disp20 (OS)                  -0.08170512 [mEh]      -0.05127074 [kcal/mol]      -0.21451676 [kJ/mol]
      Exch-Disp20 (SS)              0.00015939 [mEh]       0.00010002 [kcal/mol]       0.00041847 [kJ/mol]
      Exch-Disp20 (OS)              0.00005986 [mEh]       0.00003756 [kcal/mol]       0.00015716 [kJ/mol]

  Total HF                          0.45622333 [mEh]       0.28628446 [kcal/mol]       1.19781418 [kJ/mol]
  Total SAPT0                       0.29303234 [mEh]       0.18388057 [kcal/mol]       0.76935630 [kJ/mol]

  Special recipe for scaled SAPT0 (see Manual):
    Electrostatics sSAPT0           0.48124705 [mEh]       0.30198708 [kcal/mol]       1.26351395 [kJ/mol]
    Exchange sSAPT0                 0.00065312 [mEh]       0.00040984 [kcal/mol]       0.00171477 [kJ/mol]
    Induction sSAPT0               -0.02567684 [mEh]      -0.01611246 [kcal/mol]      -0.06741454 [kJ/mol]
    Dispersion sSAPT0              -0.16319099 [mEh]      -0.10240389 [kcal/mol]      -0.42845789 [kJ/mol]
  Total sSAPT0                      0.29303234 [mEh]       0.18388057 [kcal/mol]       0.76935630 [kJ/mol]
  --------------------------------------------------------------------------------------------------------

*** Psi4 exiting successfully. Buy a developer a beer!
