                               Psi4 1.4rc3

  ==> Input File <==

--------------------------------------------------------------------------
# PSI4 file produced by CrystaLattE

# Generated from:               imidazole.xyz
# Psithon input for N-mer:      2mer-0+327
# Number of atoms per monomer:  [9, 9]
# Number of replicas:           2
# COM priority:                 1.330193944469e-05
# Minimum COM separations:      22.334
# Separation priority:          2.414450830638e-05
# Minimum monomer separations:  18.309
# Cutoff priority:              6.978431515172e-07
# Nuclear repulsion energy:     358.9300514511657

memory 7 GB

molecule Dimer_0_327 {
  N           -4.29309621      -3.06837431       5.30516231
  N           -2.15847371      -2.92627296       1.72037448
  H           -0.02545587      -6.35903575       2.22046452
  H           -2.68566968      -6.53260241       6.61445954
  H           -4.74388423      -0.00609006       2.75615968
  H           -1.41045540      -2.24723147       0.00000000
  C           -1.43737991      -5.07504848       2.94065891
  C           -2.76900782      -5.14609916       5.13522880
  C           -3.85955036      -1.77728198       3.21093411
--
  N           13.63564756      17.23181962     -27.06312513
  N           15.77027007      17.37392098     -30.64791297
  H           17.90328791      13.94115818     -30.14782292
  H           15.24307410      13.76759152     -25.75382790
  H           13.18485955      20.29410387     -29.61212777
  H           16.51828837      18.05296246     -32.36828744
  C           16.49136386      15.22514545     -29.42762853
  C           15.15973596      15.15409477     -27.23305864
  C           14.06919342      18.52291195     -29.15735333
units = au
no_com
no_reorient
}

set {
  e_convergence 10
  d_convergence 10
  scf_type df
  mp2_type df
  cc_type df
  freeze_core true
}

energy('sapt0/aug-cc-pvdz')

--------------------------------------------------------------------------

  //              Dimer HF             //
    Molecular point group: c1
  Charge       = 0
  Multiplicity = 1
  Basis Set: AUG-CC-PVDZ
    Blend: AUG-CC-PVDZ
  Basis Set: (AUG-CC-PVDZ AUX)
    Blend: AUG-CC-PVDZ-JKFIT
  @DF-RHF Final Energy:  -449.68744268198805
    Total Energy =                       -449.6874426819880455
  //            Monomer A HF           //
    Molecular point group: c1
  Multiplicity = 1
  Basis Set: AUG-CC-PVDZ
    Blend: AUG-CC-PVDZ
  Basis Set: (AUG-CC-PVDZ AUX)
    Blend: AUG-CC-PVDZ-JKFIT
  @DF-RHF Final Energy:  -224.84369627764960
    Total Energy =                       -224.8436962776495989
  //            Monomer B HF           //
    Molecular point group: c1

    Geometry (in Bohr), charge = 0, multiplicity = 1:

       Center              X                  Y                   Z               Mass
    ------------   -----------------  -----------------  -----------------  -----------------
      Gh(N)          -4.293096210000    -3.068374310000     5.305162310000    14.003074004430
      Gh(N)          -2.158473710000    -2.926272960000     1.720374480000    14.003074004430
      Gh(H)          -0.025455870000    -6.359035750000     2.220464520000     1.007825032230
      Gh(H)          -2.685669680000    -6.532602410000     6.614459540000     1.007825032230
      Gh(H)          -4.743884230000    -0.006090060000     2.756159680000     1.007825032230
      Gh(H)          -1.410455400000    -2.247231470000     0.000000000000     1.007825032230
      Gh(C)          -1.437379910000    -5.075048480000     2.940658910000    12.000000000000
      Gh(C)          -2.769007820000    -5.146099160000     5.135228800000    12.000000000000
      Gh(C)          -3.859550360000    -1.777281980000     3.210934110000    12.000000000000
         N           13.635647560000    17.231819620000   -27.063125130000    14.003074004430
         N           15.770270070000    17.373920980000   -30.647912970000    14.003074004430
         H           17.903287910000    13.941158180000   -30.147822920000     1.007825032230
         H           15.243074100000    13.767591520000   -25.753827900000     1.007825032230
         H           13.184859550000    20.294103870000   -29.612127770000     1.007825032230
         H           16.518288370000    18.052962460000   -32.368287440000     1.007825032230
         C           16.491363860000    15.225145450000   -29.427628530000    12.000000000000
         C           15.159735960000    15.154094770000   -27.233058640000    12.000000000000
         C           14.069193420000    18.522911950000   -29.157353330000    12.000000000000

  Charge       = 0
  Multiplicity = 1
  Basis Set: AUG-CC-PVDZ
    Blend: AUG-CC-PVDZ
  Basis Set: (AUG-CC-PVDZ AUX)
    Blend: AUG-CC-PVDZ-JKFIT

    Orbital Energies [Eh]
    ---------------------

    Doubly Occupied:

       1A    -15.637071     2A    -15.551216     3A    -11.300916
       4A    -11.263160     5A    -11.245653     6A     -1.352867
       7A     -1.169098     8A     -1.012098     9A     -0.824390
      10A     -0.803731    11A     -0.760666    12A     -0.610096
      13A     -0.603958    14A     -0.601922    15A     -0.570942
      16A     -0.435483    17A     -0.400464    18A     -0.320685

  @DF-RHF Final Energy:  -224.84369627868415

   => Energetics <=

    Nuclear Repulsion Energy =            164.0866958487835916
    One-Electron Energy =                -628.9319560049314077
    Two-Electron Energy =                 240.0015638774636386
    Total Energy =                       -224.8436962786841491

  Dipole Moment: [D]
     X:     2.0431      Y:     0.4150      Z:    -3.3867     Total:     3.9769

    SAPT Results
  --------------------------------------------------------------------------------------------------------
    Electrostatics                 -0.05003323 [mEh]      -0.03139632 [kcal/mol]      -0.13136222 [kJ/mol]
      Elst10,r                     -0.05003323 [mEh]      -0.03139632 [kcal/mol]      -0.13136222 [kJ/mol]

    Exchange                        0.00000000 [mEh]       0.00000000 [kcal/mol]       0.00000000 [kJ/mol]
      Exch10                        0.00000000 [mEh]       0.00000000 [kcal/mol]       0.00000000 [kJ/mol]
      Exch10(S^2)                   0.00000000 [mEh]       0.00000000 [kcal/mol]       0.00000000 [kJ/mol]

    Induction                      -0.00009243 [mEh]      -0.00005800 [kcal/mol]      -0.00024267 [kJ/mol]
      Ind20,r                      -0.00008407 [mEh]      -0.00005276 [kcal/mol]      -0.00022074 [kJ/mol]
      Exch-Ind20,r                  0.00000000 [mEh]       0.00000000 [kcal/mol]       0.00000000 [kJ/mol]
      delta HF,r (2)               -0.00000835 [mEh]      -0.00000524 [kcal/mol]      -0.00002193 [kJ/mol]

    Dispersion                     -0.00025395 [mEh]      -0.00015935 [kcal/mol]      -0.00066674 [kJ/mol]
      Disp20                       -0.00025395 [mEh]      -0.00015935 [kcal/mol]      -0.00066674 [kJ/mol]
      Exch-Disp20                   0.00000000 [mEh]       0.00000000 [kcal/mol]       0.00000000 [kJ/mol]
      Disp20 (SS)                  -0.00012697 [mEh]      -0.00007968 [kcal/mol]      -0.00033337 [kJ/mol]
      Disp20 (OS)                  -0.00012697 [mEh]      -0.00007968 [kcal/mol]      -0.00033337 [kJ/mol]
      Exch-Disp20 (SS)              0.00000000 [mEh]       0.00000000 [kcal/mol]       0.00000000 [kJ/mol]
      Exch-Disp20 (OS)              0.00000000 [mEh]       0.00000000 [kcal/mol]       0.00000000 [kJ/mol]

  Total HF                         -0.05012565 [mEh]      -0.03145432 [kcal/mol]      -0.13160489 [kJ/mol]
  Total SAPT0                      -0.05037960 [mEh]      -0.03161368 [kcal/mol]      -0.13227163 [kJ/mol]

  Special recipe for scaled SAPT0 (see Manual):
    Electrostatics sSAPT0          -0.05003323 [mEh]      -0.03139632 [kcal/mol]      -0.13136222 [kJ/mol]
    Exchange sSAPT0                 0.00000000 [mEh]       0.00000000 [kcal/mol]       0.00000000 [kJ/mol]
    Induction sSAPT0               -0.00009243 [mEh]      -0.00005800 [kcal/mol]      -0.00024267 [kJ/mol]
    Dispersion sSAPT0              -0.00025395 [mEh]      -0.00015935 [kcal/mol]      -0.00066674 [kJ/mol]
  Total sSAPT0                     -0.05037960 [mEh]      -0.03161368 [kcal/mol]      -0.13227163 [kJ/mol]
  --------------------------------------------------------------------------------------------------------

*** Psi4 exiting successfully. Buy a developer a beer!
