                               Psi4 1.4rc3

  ==> Input File <==

--------------------------------------------------------------------------
# PSI4 file produced by CrystaLattE

# Generated from:               imidazole.xyz
# Psithon input for N-mer:      2mer-0+32
# Number of atoms per monomer:  [9, 9]
# Number of replicas:           2
# COM priority:                 1.050006507918e-04
# Minimum COM separations:      11.217
# Separation priority:          2.919044878599e-04
# Minimum monomer separations:  7.977
# Cutoff priority:              1.936367104307e-05
# Nuclear repulsion energy:     389.64065145847934

memory 7 GB

molecule Dimer_0_32 {
  N           -4.29309621      -3.06837431       5.30516231
  N           -2.15847371      -2.92627296       1.72037448
  H           -0.02545587      -6.35903575       2.22046452
  H           -2.68566968      -6.53260241       6.61445954
  H           -4.74388423      -0.00609006       2.75615968
  H           -1.41045540      -2.24723147       0.00000000
  C           -1.43737991      -5.07504848       2.94065891
  C           -2.76900782      -5.14609916       5.13522880
  C           -3.85955036      -1.77728198       3.21093411
--
  N           -0.24761467      12.15677114     -12.78547354
  N           -2.38223717      12.29887249      -9.20068571
  H           -4.51525502       8.86610970      -9.70077575
  H           -1.85504120       8.69254304     -14.09477077
  H            0.20317334      15.21905539     -10.23647090
  H           -3.13025548      12.97791398      -7.48031123
  C           -3.10333097      10.15009697     -10.42097014
  C           -1.77170306      10.07904629     -12.61554003
  C           -0.68116052      13.44786347     -10.69124534
units = au
no_com
no_reorient
}

set {
  e_convergence 10
  d_convergence 10
  scf_type df
  mp2_type df
  cc_type df
  freeze_core true
}

energy('sapt0/aug-cc-pvdz')

--------------------------------------------------------------------------

  //              Dimer HF             //
    Molecular point group: c1
  Charge       = 0
  Multiplicity = 1
  Basis Set: AUG-CC-PVDZ
    Blend: AUG-CC-PVDZ
  Basis Set: (AUG-CC-PVDZ AUX)
    Blend: AUG-CC-PVDZ-JKFIT
  @DF-RHF Final Energy:  -449.68737809810762
    Total Energy =                       -449.6873780981076152
  //            Monomer A HF           //
    Molecular point group: c1
  Multiplicity = 1
  Basis Set: AUG-CC-PVDZ
    Blend: AUG-CC-PVDZ
  Basis Set: (AUG-CC-PVDZ AUX)
    Blend: AUG-CC-PVDZ-JKFIT
  @DF-RHF Final Energy:  -224.84369841953796
    Total Energy =                       -224.8436984195379580
  //            Monomer B HF           //
    Molecular point group: c1

    Geometry (in Bohr), charge = 0, multiplicity = 1:

       Center              X                  Y                   Z               Mass
    ------------   -----------------  -----------------  -----------------  -----------------
      Gh(N)          -4.293096210000    -3.068374310000     5.305162310000    14.003074004430
      Gh(N)          -2.158473710000    -2.926272960000     1.720374480000    14.003074004430
      Gh(H)          -0.025455870000    -6.359035750000     2.220464520000     1.007825032230
      Gh(H)          -2.685669680000    -6.532602410000     6.614459540000     1.007825032230
      Gh(H)          -4.743884230000    -0.006090060000     2.756159680000     1.007825032230
      Gh(H)          -1.410455400000    -2.247231470000     0.000000000000     1.007825032230
      Gh(C)          -1.437379910000    -5.075048480000     2.940658910000    12.000000000000
      Gh(C)          -2.769007820000    -5.146099160000     5.135228800000    12.000000000000
      Gh(C)          -3.859550360000    -1.777281980000     3.210934110000    12.000000000000
         N           -0.247614670000    12.156771140000   -12.785473540000    14.003074004430
         N           -2.382237170000    12.298872490000    -9.200685710000    14.003074004430
         H           -4.515255020000     8.866109700000    -9.700775750000     1.007825032230
         H           -1.855041200000     8.692543040000   -14.094770770000     1.007825032230
         H            0.203173340000    15.219055390000   -10.236470900000     1.007825032230
         H           -3.130255480000    12.977913980000    -7.480311230000     1.007825032230
         C           -3.103330970000    10.150096970000   -10.420970140000    12.000000000000
         C           -1.771703060000    10.079046290000   -12.615540030000    12.000000000000
         C           -0.681160520000    13.447863470000   -10.691245340000    12.000000000000

  Charge       = 0
  Multiplicity = 1
  Basis Set: AUG-CC-PVDZ
    Blend: AUG-CC-PVDZ
  Basis Set: (AUG-CC-PVDZ AUX)
    Blend: AUG-CC-PVDZ-JKFIT

    Orbital Energies [Eh]
    ---------------------

    Doubly Occupied:

       1A    -15.637071     2A    -15.551216     3A    -11.300917
       4A    -11.263157     5A    -11.245653     6A     -1.352867
       7A     -1.169099     8A     -1.012098     9A     -0.824390
      10A     -0.803731    11A     -0.760666    12A     -0.610096
      13A     -0.603958    14A     -0.601923    15A     -0.570943
      16A     -0.435483    17A     -0.400465    18A     -0.320686

  @DF-RHF Final Energy:  -224.84370021968681

   => Energetics <=

    Nuclear Repulsion Energy =            164.0866959830294149
    One-Electron Energy =                -628.9319531362926909
    Two-Electron Energy =                 240.0015569335764667
    Total Energy =                       -224.8437002196868093

  Dipole Moment: [D]
     X:    -2.0430      Y:     0.4149      Z:     3.3866     Total:     3.9769

    SAPT Results
  --------------------------------------------------------------------------------------------------------
    Electrostatics                  0.02452296 [mEh]       0.01538839 [kcal/mol]       0.06438503 [kJ/mol]
      Elst10,r                      0.02452296 [mEh]       0.01538839 [kcal/mol]       0.06438503 [kJ/mol]

    Exchange                        0.00000224 [mEh]       0.00000140 [kcal/mol]       0.00000587 [kJ/mol]
      Exch10                        0.00000224 [mEh]       0.00000140 [kcal/mol]       0.00000587 [kJ/mol]
      Exch10(S^2)                   0.00000224 [mEh]       0.00000140 [kcal/mol]       0.00000587 [kJ/mol]

    Induction                      -0.00398408 [mEh]      -0.00250005 [kcal/mol]      -0.01046021 [kJ/mol]
      Ind20,r                      -0.00390084 [mEh]      -0.00244782 [kcal/mol]      -0.01024166 [kJ/mol]
      Exch-Ind20,r                  0.00000516 [mEh]       0.00000324 [kcal/mol]       0.00001354 [kJ/mol]
      delta HF,r (2)               -0.00008840 [mEh]      -0.00005547 [kcal/mol]      -0.00023209 [kJ/mol]

    Dispersion                     -0.01711302 [mEh]      -0.01073858 [kcal/mol]      -0.04493023 [kJ/mol]
      Disp20                       -0.01711344 [mEh]      -0.01073885 [kcal/mol]      -0.04493134 [kJ/mol]
      Exch-Disp20                   0.00000042 [mEh]       0.00000026 [kcal/mol]       0.00000111 [kJ/mol]
      Disp20 (SS)                  -0.00855672 [mEh]      -0.00536942 [kcal/mol]      -0.02246567 [kJ/mol]
      Disp20 (OS)                  -0.00855672 [mEh]      -0.00536942 [kcal/mol]      -0.02246567 [kJ/mol]
      Exch-Disp20 (SS)              0.00000034 [mEh]       0.00000022 [kcal/mol]       0.00000090 [kJ/mol]
      Exch-Disp20 (OS)              0.00000008 [mEh]       0.00000005 [kcal/mol]       0.00000021 [kJ/mol]

  Total HF                          0.02054112 [mEh]       0.01288975 [kcal/mol]       0.05393070 [kJ/mol]
  Total SAPT0                       0.00342810 [mEh]       0.00215116 [kcal/mol]       0.00900046 [kJ/mol]

  Special recipe for scaled SAPT0 (see Manual):
    Electrostatics sSAPT0           0.02452296 [mEh]       0.01538839 [kcal/mol]       0.06438503 [kJ/mol]
    Exchange sSAPT0                 0.00000224 [mEh]       0.00000140 [kcal/mol]       0.00000587 [kJ/mol]
    Induction sSAPT0               -0.00398408 [mEh]      -0.00250005 [kcal/mol]      -0.01046021 [kJ/mol]
    Dispersion sSAPT0              -0.01711302 [mEh]      -0.01073858 [kcal/mol]      -0.04493023 [kJ/mol]
  Total sSAPT0                      0.00342810 [mEh]       0.00215116 [kcal/mol]       0.00900046 [kJ/mol]
  --------------------------------------------------------------------------------------------------------

*** Psi4 exiting successfully. Buy a developer a beer!
