                               Psi4 1.4rc3

  ==> Input File <==

--------------------------------------------------------------------------
# PSI4 file produced by CrystaLattE

# Generated from:               imidazole.xyz
# Psithon input for N-mer:      2mer-0+498
# Number of atoms per monomer:  [9, 9]
# Number of replicas:           2
# COM priority:                 1.709965757927e-05
# Minimum COM separations:      20.540
# Separation priority:          2.775995448188e-05
# Minimum monomer separations:  17.477
# Cutoff priority:              8.405398978509e-07
# Nuclear repulsion energy:     361.53702688360784

memory 7 GB

molecule Dimer_0_498 {
  N           -4.29309621      -3.06837431       5.30516231
  N           -2.15847371      -2.92627296       1.72037448
  H           -0.02545587      -6.35903575       2.22046452
  H           -2.68566968      -6.53260241       6.61445954
  H           -4.74388423      -0.00609006       2.75615968
  H           -1.41045540      -2.24723147       0.00000000
  C           -1.43737991      -5.07504848       2.94065891
  C           -2.76900782      -5.14609916       5.13522880
  C           -3.85955036      -1.77728198       3.21093411
--
  N          -12.81244891      12.15677114      35.76695762
  N          -14.94707141      12.29887249      39.35174546
  H          -17.08008925       8.86610970      38.85165542
  H          -14.41987544       8.69254304      34.45766040
  H          -12.36166089      15.21905539      38.31596026
  H          -15.69508971      12.97791398      41.07211994
  C          -15.66816521      10.15009697      38.13146102
  C          -14.33653730      10.07904629      35.93689113
  C          -13.24599476      13.44786347      37.86118582
units = au
no_com
no_reorient
}

set {
  e_convergence 10
  d_convergence 10
  scf_type df
  mp2_type df
  cc_type df
  freeze_core true
}

energy('sapt0/aug-cc-pvdz')

--------------------------------------------------------------------------

  //              Dimer HF             //
    Molecular point group: c1
  Charge       = 0
  Multiplicity = 1
  Basis Set: AUG-CC-PVDZ
    Blend: AUG-CC-PVDZ
  Basis Set: (AUG-CC-PVDZ AUX)
    Blend: AUG-CC-PVDZ-JKFIT
  @DF-RHF Final Energy:  -449.68733893275521
    Total Energy =                       -449.6873389327552104
  //            Monomer A HF           //
    Molecular point group: c1
  Multiplicity = 1
  Basis Set: AUG-CC-PVDZ
    Blend: AUG-CC-PVDZ
  Basis Set: (AUG-CC-PVDZ AUX)
    Blend: AUG-CC-PVDZ-JKFIT
  @DF-RHF Final Energy:  -224.84369627821428
    Total Energy =                       -224.8436962782142814
  //            Monomer B HF           //
    Molecular point group: c1

    Geometry (in Bohr), charge = 0, multiplicity = 1:

       Center              X                  Y                   Z               Mass
    ------------   -----------------  -----------------  -----------------  -----------------
      Gh(N)          -4.293096210000    -3.068374310000     5.305162310000    14.003074004430
      Gh(N)          -2.158473710000    -2.926272960000     1.720374480000    14.003074004430
      Gh(H)          -0.025455870000    -6.359035750000     2.220464520000     1.007825032230
      Gh(H)          -2.685669680000    -6.532602410000     6.614459540000     1.007825032230
      Gh(H)          -4.743884230000    -0.006090060000     2.756159680000     1.007825032230
      Gh(H)          -1.410455400000    -2.247231470000     0.000000000000     1.007825032230
      Gh(C)          -1.437379910000    -5.075048480000     2.940658910000    12.000000000000
      Gh(C)          -2.769007820000    -5.146099160000     5.135228800000    12.000000000000
      Gh(C)          -3.859550360000    -1.777281980000     3.210934110000    12.000000000000
         N          -12.812448910000    12.156771140000    35.766957620000    14.003074004430
         N          -14.947071410000    12.298872490000    39.351745460000    14.003074004430
         H          -17.080089250000     8.866109700000    38.851655420000     1.007825032230
         H          -14.419875440000     8.692543040000    34.457660400000     1.007825032230
         H          -12.361660890000    15.219055390000    38.315960260000     1.007825032230
         H          -15.695089710000    12.977913980000    41.072119940000     1.007825032230
         C          -15.668165210000    10.150096970000    38.131461020000    12.000000000000
         C          -14.336537300000    10.079046290000    35.936891130000    12.000000000000
         C          -13.245994760000    13.447863470000    37.861185820000    12.000000000000

  Charge       = 0
  Multiplicity = 1
  Basis Set: AUG-CC-PVDZ
    Blend: AUG-CC-PVDZ
  Basis Set: (AUG-CC-PVDZ AUX)
    Blend: AUG-CC-PVDZ-JKFIT

    Orbital Energies [Eh]
    ---------------------

    Doubly Occupied:

       1A    -15.637071     2A    -15.551216     3A    -11.300916
       4A    -11.263160     5A    -11.245653     6A     -1.352867
       7A     -1.169098     8A     -1.012098     9A     -0.824390
      10A     -0.803731    11A     -0.760666    12A     -0.610096
      13A     -0.603958    14A     -0.601922    15A     -0.570942
      16A     -0.435483    17A     -0.400464    18A     -0.320685

  @DF-RHF Final Energy:  -224.84369627792520

   => Energetics <=

    Nuclear Repulsion Energy =            164.0866958835653975
    One-Electron Energy =                -628.9319560763456138
    Two-Electron Energy =                 240.0015639148549838
    Total Energy =                       -224.8436962779252042

  Dipole Moment: [D]
     X:    -2.0431      Y:     0.4150      Z:     3.3867     Total:     3.9769

    SAPT Results
  --------------------------------------------------------------------------------------------------------
    Electrostatics                  0.05372590 [mEh]       0.03371351 [kcal/mol]       0.14105733 [kJ/mol]
      Elst10,r                      0.05372590 [mEh]       0.03371351 [kcal/mol]       0.14105733 [kJ/mol]

    Exchange                        0.00000000 [mEh]       0.00000000 [kcal/mol]       0.00000000 [kJ/mol]
      Exch10                        0.00000000 [mEh]       0.00000000 [kcal/mol]       0.00000000 [kJ/mol]
      Exch10(S^2)                   0.00000000 [mEh]       0.00000000 [kcal/mol]       0.00000000 [kJ/mol]

    Induction                      -0.00010252 [mEh]      -0.00006433 [kcal/mol]      -0.00026916 [kJ/mol]
      Ind20,r                      -0.00012202 [mEh]      -0.00007657 [kcal/mol]      -0.00032037 [kJ/mol]
      Exch-Ind20,r                  0.00000000 [mEh]       0.00000000 [kcal/mol]       0.00000000 [kJ/mol]
      delta HF,r (2)                0.00001951 [mEh]       0.00001224 [kcal/mol]       0.00005121 [kJ/mol]

    Dispersion                     -0.00041014 [mEh]      -0.00025737 [kcal/mol]      -0.00107683 [kJ/mol]
      Disp20                       -0.00041014 [mEh]      -0.00025737 [kcal/mol]      -0.00107683 [kJ/mol]
      Exch-Disp20                   0.00000000 [mEh]       0.00000000 [kcal/mol]       0.00000000 [kJ/mol]
      Disp20 (SS)                  -0.00020507 [mEh]      -0.00012868 [kcal/mol]      -0.00053841 [kJ/mol]
      Disp20 (OS)                  -0.00020507 [mEh]      -0.00012868 [kcal/mol]      -0.00053841 [kJ/mol]
      Exch-Disp20 (SS)              0.00000000 [mEh]       0.00000000 [kcal/mol]       0.00000000 [kJ/mol]
      Exch-Disp20 (OS)              0.00000000 [mEh]       0.00000000 [kcal/mol]       0.00000000 [kJ/mol]

  Total HF                          0.05362338 [mEh]       0.03364918 [kcal/mol]       0.14078818 [kJ/mol]
  Total SAPT0                       0.05321324 [mEh]       0.03339181 [kcal/mol]       0.13971135 [kJ/mol]

  Special recipe for scaled SAPT0 (see Manual):
    Electrostatics sSAPT0           0.05372590 [mEh]       0.03371351 [kcal/mol]       0.14105733 [kJ/mol]
    Exchange sSAPT0                 0.00000000 [mEh]       0.00000000 [kcal/mol]       0.00000000 [kJ/mol]
    Induction sSAPT0               -0.00010252 [mEh]      -0.00006433 [kcal/mol]      -0.00026916 [kJ/mol]
    Dispersion sSAPT0              -0.00041014 [mEh]      -0.00025737 [kcal/mol]      -0.00107683 [kJ/mol]
  Total sSAPT0                      0.05321324 [mEh]       0.03339181 [kcal/mol]       0.13971135 [kJ/mol]
  --------------------------------------------------------------------------------------------------------

*** Psi4 exiting successfully. Buy a developer a beer!
