                               Psi4 1.4rc3

  ==> Input File <==

--------------------------------------------------------------------------
# PSI4 file produced by CrystaLattE

# Generated from:               imidazole.xyz
# Psithon input for N-mer:      2mer-0+4
# Number of atoms per monomer:  [9, 9]
# Number of replicas:           1
# COM priority:                 7.695242390619e-04
# Minimum COM separations:      5.775
# Separation priority:          9.190412375565e-03
# Minimum monomer separations:  2.526
# Cutoff priority:              1.925070615469e-03
# Nuclear repulsion energy:     450.25983726753253

memory 7 GB

molecule Dimer_0_4 {
  N           -4.29309621      -3.06837431       5.30516231
  N           -2.15847371      -2.92627296       1.72037448
  H           -0.02545587      -6.35903575       2.22046452
  H           -2.68566968      -6.53260241       6.61445954
  H           -4.74388423      -0.00609006       2.75615968
  H           -1.41045540      -2.24723147       0.00000000
  C           -1.43737991      -5.07504848       2.94065891
  C           -2.76900782      -5.14609916       5.13522880
  C           -3.85955036      -1.77728198       3.21093411
--
  N           -4.72980061       3.97173294      -4.69340168
  N           -6.86442311       3.82963158      -1.10861384
  H           -8.99744096       7.26239438      -1.60870389
  H           -6.33722715       7.43596104      -6.00269891
  H           -4.27901260       0.90944869      -2.14439904
  H           -7.61244142       3.15059010       0.61176063
  C           -7.58551691       5.97840711      -2.32889828
  C           -6.25388901       6.04945779      -4.52346817
  C           -5.16334647       2.68064061      -2.59917348
units = au
no_com
no_reorient
}

set {
  e_convergence 10
  d_convergence 10
  scf_type df
  mp2_type df
  cc_type df
  freeze_core true
}

energy('sapt0/aug-cc-pvdz')

--------------------------------------------------------------------------

  //              Dimer HF             //
    Molecular point group: c1
  Charge       = 0
  Multiplicity = 1
  Basis Set: AUG-CC-PVDZ
    Blend: AUG-CC-PVDZ
  Basis Set: (AUG-CC-PVDZ AUX)
    Blend: AUG-CC-PVDZ-JKFIT
  @DF-RHF Final Energy:  -449.68551751772657
    Total Energy =                       -449.6855175177265664
  //            Monomer A HF           //
    Molecular point group: c1
  Multiplicity = 1
  Basis Set: AUG-CC-PVDZ
    Blend: AUG-CC-PVDZ
  Basis Set: (AUG-CC-PVDZ AUX)
    Blend: AUG-CC-PVDZ-JKFIT
  @DF-RHF Final Energy:  -224.84390318000533
    Total Energy =                       -224.8439031800053272
  //            Monomer B HF           //
    Molecular point group: c1

    Geometry (in Bohr), charge = 0, multiplicity = 1:

       Center              X                  Y                   Z               Mass
    ------------   -----------------  -----------------  -----------------  -----------------
      Gh(N)          -4.293096210000    -3.068374310000     5.305162310000    14.003074004430
      Gh(N)          -2.158473710000    -2.926272960000     1.720374480000    14.003074004430
      Gh(H)          -0.025455870000    -6.359035750000     2.220464520000     1.007825032230
      Gh(H)          -2.685669680000    -6.532602410000     6.614459540000     1.007825032230
      Gh(H)          -4.743884230000    -0.006090060000     2.756159680000     1.007825032230
      Gh(H)          -1.410455400000    -2.247231470000     0.000000000000     1.007825032230
      Gh(C)          -1.437379910000    -5.075048480000     2.940658910000    12.000000000000
      Gh(C)          -2.769007820000    -5.146099160000     5.135228800000    12.000000000000
      Gh(C)          -3.859550360000    -1.777281980000     3.210934110000    12.000000000000
         N           -4.729800610000     3.971732940000    -4.693401680000    14.003074004430
         N           -6.864423110000     3.829631580000    -1.108613840000    14.003074004430
         H           -8.997440960000     7.262394380000    -1.608703890000     1.007825032230
         H           -6.337227150000     7.435961040000    -6.002698910000     1.007825032230
         H           -4.279012600000     0.909448690000    -2.144399040000     1.007825032230
         H           -7.612441420000     3.150590100000     0.611760630000     1.007825032230
         C           -7.585516910000     5.978407110000    -2.328898280000    12.000000000000
         C           -6.253889010000     6.049457790000    -4.523468170000    12.000000000000
         C           -5.163346470000     2.680640610000    -2.599173480000    12.000000000000

  Charge       = 0
  Multiplicity = 1
  Basis Set: AUG-CC-PVDZ
    Blend: AUG-CC-PVDZ
  Basis Set: (AUG-CC-PVDZ AUX)
    Blend: AUG-CC-PVDZ-JKFIT

    Orbital Energies [Eh]
    ---------------------

    Doubly Occupied:

       1A    -15.637070     2A    -15.551232     3A    -11.300834
       4A    -11.263127     5A    -11.245633     6A     -1.352823
       7A     -1.169064     8A     -1.012069     9A     -0.824355
      10A     -0.803703    11A     -0.760632    12A     -0.610074
      13A     -0.603935    14A     -0.601896    15A     -0.570921
      16A     -0.435451    17A     -0.400457    18A     -0.320666

  @DF-RHF Final Energy:  -224.84390318034741

   => Energetics <=

    Nuclear Repulsion Energy =            164.0866958869486041
    One-Electron Energy =                -628.9333126995800285
    Two-Electron Energy =                 240.0027136322839851
    Total Energy =                       -224.8439031803474109

  Dipole Moment: [D]
     X:    -2.0439      Y:    -0.4131      Z:     3.3876     Total:     3.9779

    SAPT Results
  --------------------------------------------------------------------------------------------------------
    Electrostatics                  1.52555188 [mEh]       0.95729826 [kcal/mol]       4.00533590 [kJ/mol]
      Elst10,r                      1.52555188 [mEh]       0.95729826 [kcal/mol]       4.00533590 [kJ/mol]

    Exchange                        1.38248131 [mEh]       0.86752012 [kcal/mol]       3.62970418 [kJ/mol]
      Exch10                        1.38248131 [mEh]       0.86752012 [kcal/mol]       3.62970418 [kJ/mol]
      Exch10(S^2)                   1.38116680 [mEh]       0.86669525 [kcal/mol]       3.62625293 [kJ/mol]

    Induction                      -0.61919056 [mEh]      -0.38854794 [kcal/mol]      -1.62568459 [kJ/mol]
      Ind20,r                      -0.82154201 [mEh]      -0.51552540 [kcal/mol]      -2.15695826 [kJ/mol]
      Exch-Ind20,r                  0.26577414 [mEh]       0.16677579 [kcal/mol]       0.69778992 [kJ/mol]
      delta HF,r (2)               -0.06342269 [mEh]      -0.03979834 [kcal/mol]      -0.16651626 [kJ/mol]

    Dispersion                     -2.50573753 [mEh]      -1.57237404 [kcal/mol]      -6.57881299 [kJ/mol]
      Disp20                       -2.63313773 [mEh]      -1.65231887 [kcal/mol]      -6.91330215 [kJ/mol]
      Exch-Disp20                   0.12740019 [mEh]       0.07994483 [kcal/mol]       0.33448916 [kJ/mol]
      Disp20 (SS)                  -1.31656886 [mEh]      -0.82615943 [kcal/mol]      -3.45665107 [kJ/mol]
      Disp20 (OS)                  -1.31656886 [mEh]      -0.82615943 [kcal/mol]      -3.45665107 [kJ/mol]
      Exch-Disp20 (SS)              0.08311487 [mEh]       0.05215537 [kcal/mol]       0.21821806 [kJ/mol]
      Exch-Disp20 (OS)              0.04428532 [mEh]       0.02778946 [kcal/mol]       0.11627110 [kJ/mol]

  Total HF                          2.28884263 [mEh]       1.43627043 [kcal/mol]       6.00935549 [kJ/mol]
  Total SAPT0                      -0.21689491 [mEh]      -0.13610361 [kcal/mol]      -0.56945750 [kJ/mol]

  Special recipe for scaled SAPT0 (see Manual):
    Electrostatics sSAPT0           1.52555188 [mEh]       0.95729826 [kcal/mol]       4.00533590 [kJ/mol]
    Exchange sSAPT0                 1.38248131 [mEh]       0.86752012 [kcal/mol]       3.62970418 [kJ/mol]
    Induction sSAPT0               -0.61843100 [mEh]      -0.38807131 [kcal/mol]      -1.62369035 [kJ/mol]
    Dispersion sSAPT0              -2.50537343 [mEh]      -1.57214556 [kcal/mol]      -6.57785704 [kJ/mol]
  Total sSAPT0                     -0.21577124 [mEh]      -0.13539850 [kcal/mol]      -0.56650732 [kJ/mol]
  --------------------------------------------------------------------------------------------------------

*** Psi4 exiting successfully. Buy a developer a beer!
