                               Psi4 1.4rc3

  ==> Input File <==

--------------------------------------------------------------------------
# PSI4 file produced by CrystaLattE

# Generated from:               imidazole.xyz
# Psithon input for N-mer:      2mer-0+272
# Number of atoms per monomer:  [9, 9]
# Number of replicas:           2
# COM priority:                 2.305040232942e-05
# Minimum COM separations:      18.594
# Separation priority:          3.053003161922e-05
# Minimum monomer separations:  16.931
# Cutoff priority:              9.541932472870e-07
# Nuclear repulsion energy:     364.9859172582225

memory 7 GB

molecule Dimer_0_272 {
  N           -4.29309621      -3.06837431       5.30516231
  N           -2.15847371      -2.92627296       1.72037448
  H           -0.02545587      -6.35903575       2.22046452
  H           -2.68566968      -6.53260241       6.61445954
  H           -4.74388423      -0.00609006       2.75615968
  H           -1.41045540      -2.24723147       0.00000000
  C           -1.43737991      -5.07504848       2.94065891
  C           -2.76900782      -5.14609916       5.13522880
  C           -3.85955036      -1.77728198       3.21093411
--
  N           24.80848584      12.15677114      19.58281390
  N           22.67386334      12.29887249      23.16760174
  H           20.54084549       8.86610970      22.66751170
  H           23.20105931       8.69254304      18.27351668
  H           25.25927385      15.21905539      22.13181654
  H           21.92584503      12.97791398      24.88797622
  C           21.95276954      10.15009697      21.94731730
  C           23.28439745      10.07904629      19.75274741
  C           24.37493998      13.44786347      21.67704210
units = au
no_com
no_reorient
}

set {
  e_convergence 10
  d_convergence 10
  scf_type df
  mp2_type df
  cc_type df
  freeze_core true
}

energy('sapt0/aug-cc-pvdz')

--------------------------------------------------------------------------

  //              Dimer HF             //
    Molecular point group: c1
  Charge       = 0
  Multiplicity = 1
  Basis Set: AUG-CC-PVDZ
    Blend: AUG-CC-PVDZ
  Basis Set: (AUG-CC-PVDZ AUX)
    Blend: AUG-CC-PVDZ-JKFIT
  @DF-RHF Final Energy:  -449.68744041448622
    Total Energy =                       -449.6874404144862183
  //            Monomer A HF           //
    Molecular point group: c1
  Multiplicity = 1
  Basis Set: AUG-CC-PVDZ
    Blend: AUG-CC-PVDZ
  Basis Set: (AUG-CC-PVDZ AUX)
    Blend: AUG-CC-PVDZ-JKFIT
  @DF-RHF Final Energy:  -224.84369627823000
    Total Energy =                       -224.8436962782299986
  //            Monomer B HF           //
    Molecular point group: c1

    Geometry (in Bohr), charge = 0, multiplicity = 1:

       Center              X                  Y                   Z               Mass
    ------------   -----------------  -----------------  -----------------  -----------------
      Gh(N)          -4.293096210000    -3.068374310000     5.305162310000    14.003074004430
      Gh(N)          -2.158473710000    -2.926272960000     1.720374480000    14.003074004430
      Gh(H)          -0.025455870000    -6.359035750000     2.220464520000     1.007825032230
      Gh(H)          -2.685669680000    -6.532602410000     6.614459540000     1.007825032230
      Gh(H)          -4.743884230000    -0.006090060000     2.756159680000     1.007825032230
      Gh(H)          -1.410455400000    -2.247231470000     0.000000000000     1.007825032230
      Gh(C)          -1.437379910000    -5.075048480000     2.940658910000    12.000000000000
      Gh(C)          -2.769007820000    -5.146099160000     5.135228800000    12.000000000000
      Gh(C)          -3.859550360000    -1.777281980000     3.210934110000    12.000000000000
         N           24.808485840000    12.156771140000    19.582813900000    14.003074004430
         N           22.673863340000    12.298872490000    23.167601740000    14.003074004430
         H           20.540845490000     8.866109700000    22.667511700000     1.007825032230
         H           23.201059310000     8.692543040000    18.273516680000     1.007825032230
         H           25.259273850000    15.219055390000    22.131816540000     1.007825032230
         H           21.925845030000    12.977913980000    24.887976220000     1.007825032230
         C           21.952769540000    10.150096970000    21.947317300000    12.000000000000
         C           23.284397450000    10.079046290000    19.752747410000    12.000000000000
         C           24.374939980000    13.447863470000    21.677042100000    12.000000000000

  Charge       = 0
  Multiplicity = 1
  Basis Set: AUG-CC-PVDZ
    Blend: AUG-CC-PVDZ
  Basis Set: (AUG-CC-PVDZ AUX)
    Blend: AUG-CC-PVDZ-JKFIT

    Orbital Energies [Eh]
    ---------------------

    Doubly Occupied:

       1A    -15.637071     2A    -15.551216     3A    -11.300916
       4A    -11.263160     5A    -11.245653     6A     -1.352867
       7A     -1.169098     8A     -1.012098     9A     -0.824390
      10A     -0.803731    11A     -0.760666    12A     -0.610096
      13A     -0.603958    14A     -0.601922    15A     -0.570942
      16A     -0.435483    17A     -0.400464    18A     -0.320685

  @DF-RHF Final Energy:  -224.84369627860838

   => Energetics <=

    Nuclear Repulsion Energy =            164.0866959155633538
    One-Electron Energy =                -628.9319561455590701
    Two-Electron Energy =                 240.0015639513873111
    Total Energy =                       -224.8436962786083768

  Dipole Moment: [D]
     X:    -2.0431      Y:     0.4150      Z:     3.3867     Total:     3.9769

    SAPT Results
  --------------------------------------------------------------------------------------------------------
    Electrostatics                 -0.04780088 [mEh]      -0.02999551 [kcal/mol]      -0.12550120 [kJ/mol]
      Elst10,r                     -0.04780088 [mEh]      -0.02999551 [kcal/mol]      -0.12550120 [kJ/mol]

    Exchange                        0.00000000 [mEh]       0.00000000 [kcal/mol]       0.00000000 [kJ/mol]
      Exch10                        0.00000000 [mEh]       0.00000000 [kcal/mol]       0.00000000 [kJ/mol]
      Exch10(S^2)                   0.00000000 [mEh]       0.00000000 [kcal/mol]       0.00000000 [kJ/mol]

    Induction                      -0.00005677 [mEh]      -0.00003562 [kcal/mol]      -0.00014904 [kJ/mol]
      Ind20,r                      -0.00006433 [mEh]      -0.00004037 [kcal/mol]      -0.00016889 [kJ/mol]
      Exch-Ind20,r                  0.00000000 [mEh]       0.00000000 [kcal/mol]       0.00000000 [kJ/mol]
      delta HF,r (2)                0.00000756 [mEh]       0.00000475 [kcal/mol]       0.00001986 [kJ/mol]

    Dispersion                     -0.00061088 [mEh]      -0.00038333 [kcal/mol]      -0.00160386 [kJ/mol]
      Disp20                       -0.00061088 [mEh]      -0.00038333 [kcal/mol]      -0.00160386 [kJ/mol]
      Exch-Disp20                   0.00000000 [mEh]       0.00000000 [kcal/mol]       0.00000000 [kJ/mol]
      Disp20 (SS)                  -0.00030544 [mEh]      -0.00019167 [kcal/mol]      -0.00080193 [kJ/mol]
      Disp20 (OS)                  -0.00030544 [mEh]      -0.00019167 [kcal/mol]      -0.00080193 [kJ/mol]
      Exch-Disp20 (SS)              0.00000000 [mEh]       0.00000000 [kcal/mol]       0.00000000 [kJ/mol]
      Exch-Disp20 (OS)              0.00000000 [mEh]       0.00000000 [kcal/mol]       0.00000000 [kJ/mol]

  Total HF                         -0.04785765 [mEh]      -0.03003113 [kcal/mol]      -0.12565024 [kJ/mol]
  Total SAPT0                      -0.04846853 [mEh]      -0.03041446 [kcal/mol]      -0.12725410 [kJ/mol]

  Special recipe for scaled SAPT0 (see Manual):
    Electrostatics sSAPT0          -0.04780088 [mEh]      -0.02999551 [kcal/mol]      -0.12550120 [kJ/mol]
    Exchange sSAPT0                 0.00000000 [mEh]       0.00000000 [kcal/mol]       0.00000000 [kJ/mol]
    Induction sSAPT0               -0.00005677 [mEh]      -0.00003562 [kcal/mol]      -0.00014904 [kJ/mol]
    Dispersion sSAPT0              -0.00061088 [mEh]      -0.00038333 [kcal/mol]      -0.00160386 [kJ/mol]
  Total sSAPT0                     -0.04846853 [mEh]      -0.03041446 [kcal/mol]      -0.12725410 [kJ/mol]
  --------------------------------------------------------------------------------------------------------

*** Psi4 exiting successfully. Buy a developer a beer!
