                               Psi4 1.4rc3

  ==> Input File <==

--------------------------------------------------------------------------
# PSI4 file produced by CrystaLattE

# Generated from:               imidazole.xyz
# Psithon input for N-mer:      2mer-0+438
# Number of atoms per monomer:  [9, 9]
# Number of replicas:           2
# COM priority:                 1.773007671416e-05
# Minimum COM separations:      20.294
# Separation priority:          2.474437939913e-05
# Minimum monomer separations:  18.160
# Cutoff priority:              7.210556008783e-07
# Nuclear repulsion energy:     361.88341206364936

memory 7 GB

molecule Dimer_0_438 {
  N           -4.29309621      -3.06837431       5.30516231
  N           -2.15847371      -2.92627296       1.72037448
  H           -0.02545587      -6.35903575       2.22046452
  H           -2.68566968      -6.53260241       6.61445954
  H           -4.74388423      -0.00609006       2.75615968
  H           -1.41045540      -2.24723147       0.00000000
  C           -1.43737991      -5.07504848       2.94065891
  C           -2.76900782      -5.14609916       5.13522880
  C           -3.85955036      -1.77728198       3.21093411
--
  N          -33.83138266      -1.10331554     -18.97105327
  N          -31.69676016      -1.24541690     -22.55584110
  H          -29.56374232       2.18734590     -22.05575106
  H          -32.22395613       2.36091255     -17.66175604
  H          -34.28217068      -4.16559979     -21.52005591
  H          -30.94874186      -1.92445838     -24.27621558
  C          -30.97566637       0.90335863     -21.33555667
  C          -32.30729427       0.97440931     -19.14098678
  C          -33.39783681      -2.39440787     -21.06528147
units = au
no_com
no_reorient
}

set {
  e_convergence 10
  d_convergence 10
  scf_type df
  mp2_type df
  cc_type df
  freeze_core true
}

energy('sapt0/aug-cc-pvdz')

--------------------------------------------------------------------------

  //              Dimer HF             //
    Molecular point group: c1
  Charge       = 0
  Multiplicity = 1
  Basis Set: AUG-CC-PVDZ
    Blend: AUG-CC-PVDZ
  Basis Set: (AUG-CC-PVDZ AUX)
    Blend: AUG-CC-PVDZ-JKFIT
  @DF-RHF Final Energy:  -449.68735347936808
    Total Energy =                       -449.6873534793680847
  //            Monomer A HF           //
    Molecular point group: c1
  Multiplicity = 1
  Basis Set: AUG-CC-PVDZ
    Blend: AUG-CC-PVDZ
  Basis Set: (AUG-CC-PVDZ AUX)
    Blend: AUG-CC-PVDZ-JKFIT
  @DF-RHF Final Energy:  -224.84369627841019
    Total Energy =                       -224.8436962784101922
  //            Monomer B HF           //
    Molecular point group: c1

    Geometry (in Bohr), charge = 0, multiplicity = 1:

       Center              X                  Y                   Z               Mass
    ------------   -----------------  -----------------  -----------------  -----------------
      Gh(N)          -4.293096210000    -3.068374310000     5.305162310000    14.003074004430
      Gh(N)          -2.158473710000    -2.926272960000     1.720374480000    14.003074004430
      Gh(H)          -0.025455870000    -6.359035750000     2.220464520000     1.007825032230
      Gh(H)          -2.685669680000    -6.532602410000     6.614459540000     1.007825032230
      Gh(H)          -4.743884230000    -0.006090060000     2.756159680000     1.007825032230
      Gh(H)          -1.410455400000    -2.247231470000     0.000000000000     1.007825032230
      Gh(C)          -1.437379910000    -5.075048480000     2.940658910000    12.000000000000
      Gh(C)          -2.769007820000    -5.146099160000     5.135228800000    12.000000000000
      Gh(C)          -3.859550360000    -1.777281980000     3.210934110000    12.000000000000
         N          -33.831382660000    -1.103315540000   -18.971053270000    14.003074004430
         N          -31.696760160000    -1.245416900000   -22.555841100000    14.003074004430
         H          -29.563742320000     2.187345900000   -22.055751060000     1.007825032230
         H          -32.223956130000     2.360912550000   -17.661756040000     1.007825032230
         H          -34.282170680000    -4.165599790000   -21.520055910000     1.007825032230
         H          -30.948741860000    -1.924458380000   -24.276215580000     1.007825032230
         C          -30.975666370000     0.903358630000   -21.335556670000    12.000000000000
         C          -32.307294270000     0.974409310000   -19.140986780000    12.000000000000
         C          -33.397836810000    -2.394407870000   -21.065281470000    12.000000000000

  Charge       = 0
  Multiplicity = 1
  Basis Set: AUG-CC-PVDZ
    Blend: AUG-CC-PVDZ
  Basis Set: (AUG-CC-PVDZ AUX)
    Blend: AUG-CC-PVDZ-JKFIT

    Orbital Energies [Eh]
    ---------------------

    Doubly Occupied:

       1A    -15.637071     2A    -15.551216     3A    -11.300916
       4A    -11.263160     5A    -11.245653     6A     -1.352867
       7A     -1.169098     8A     -1.012098     9A     -0.824390
      10A     -0.803731    11A     -0.760666    12A     -0.610096
      13A     -0.603958    14A     -0.601922    15A     -0.570942
      16A     -0.435483    17A     -0.400464    18A     -0.320685

  @DF-RHF Final Energy:  -224.84369627858720

   => Energetics <=

    Nuclear Repulsion Energy =            164.0866960499691061
    One-Electron Energy =                -628.9319564095744681
    Two-Electron Energy =                 240.0015640810181878
    Total Energy =                       -224.8436962785872026

  Dipole Moment: [D]
     X:     2.0431      Y:    -0.4150      Z:    -3.3867     Total:     3.9769

    SAPT Results
  --------------------------------------------------------------------------------------------------------
    Electrostatics                  0.03911715 [mEh]       0.02454638 [kcal/mol]       0.10270205 [kJ/mol]
      Elst10,r                      0.03911715 [mEh]       0.02454638 [kcal/mol]       0.10270205 [kJ/mol]

    Exchange                        0.00000000 [mEh]       0.00000000 [kcal/mol]       0.00000000 [kJ/mol]
      Exch10                        0.00000000 [mEh]       0.00000000 [kcal/mol]       0.00000000 [kJ/mol]
      Exch10(S^2)                   0.00000000 [mEh]       0.00000000 [kcal/mol]       0.00000000 [kJ/mol]

    Induction                      -0.00003952 [mEh]      -0.00002480 [kcal/mol]      -0.00010375 [kJ/mol]
      Ind20,r                      -0.00004321 [mEh]      -0.00002711 [kcal/mol]      -0.00011345 [kJ/mol]
      Exch-Ind20,r                  0.00000000 [mEh]       0.00000000 [kcal/mol]       0.00000000 [kJ/mol]
      delta HF,r (2)                0.00000369 [mEh]       0.00000232 [kcal/mol]       0.00000969 [kJ/mol]

    Dispersion                     -0.00035006 [mEh]      -0.00021967 [kcal/mol]      -0.00091909 [kJ/mol]
      Disp20                       -0.00035006 [mEh]      -0.00021967 [kcal/mol]      -0.00091909 [kJ/mol]
      Exch-Disp20                   0.00000000 [mEh]       0.00000000 [kcal/mol]       0.00000000 [kJ/mol]
      Disp20 (SS)                  -0.00017503 [mEh]      -0.00010983 [kcal/mol]      -0.00045955 [kJ/mol]
      Disp20 (OS)                  -0.00017503 [mEh]      -0.00010983 [kcal/mol]      -0.00045955 [kJ/mol]
      Exch-Disp20 (SS)              0.00000000 [mEh]       0.00000000 [kcal/mol]       0.00000000 [kJ/mol]
      Exch-Disp20 (OS)              0.00000000 [mEh]       0.00000000 [kcal/mol]       0.00000000 [kJ/mol]

  Total HF                          0.03907763 [mEh]       0.02452158 [kcal/mol]       0.10259830 [kJ/mol]
  Total SAPT0                       0.03872756 [mEh]       0.02430191 [kcal/mol]       0.10167921 [kJ/mol]

  Special recipe for scaled SAPT0 (see Manual):
    Electrostatics sSAPT0           0.03911715 [mEh]       0.02454638 [kcal/mol]       0.10270205 [kJ/mol]
    Exchange sSAPT0                 0.00000000 [mEh]       0.00000000 [kcal/mol]       0.00000000 [kJ/mol]
    Induction sSAPT0               -0.00003952 [mEh]      -0.00002480 [kcal/mol]      -0.00010375 [kJ/mol]
    Dispersion sSAPT0              -0.00035006 [mEh]      -0.00021967 [kcal/mol]      -0.00091909 [kJ/mol]
  Total sSAPT0                      0.03872756 [mEh]       0.02430191 [kcal/mol]       0.10167921 [kJ/mol]
  --------------------------------------------------------------------------------------------------------

*** Psi4 exiting successfully. Buy a developer a beer!
