                               Psi4 1.4rc3

  ==> Input File <==

--------------------------------------------------------------------------
# PSI4 file produced by CrystaLattE

# Generated from:               imidazole.xyz
# Psithon input for N-mer:      2mer-0+287
# Number of atoms per monomer:  [9, 9]
# Number of replicas:           2
# COM priority:                 1.665888517693e-05
# Minimum COM separations:      20.720
# Separation priority:          2.714770862399e-05
# Minimum monomer separations:  17.607
# Cutoff priority:              8.159137255456e-07
# Nuclear repulsion energy:     361.3124134041871

memory 7 GB

molecule Dimer_0_287 {
  N           -4.29309621      -3.06837431       5.30516231
  N           -2.15847371      -2.92627296       1.72037448
  H           -0.02545587      -6.35903575       2.22046452
  H           -2.68566968      -6.53260241       6.61445954
  H           -4.74388423      -0.00609006       2.75615968
  H           -1.41045540      -2.24723147       0.00000000
  C           -1.43737991      -5.07504848       2.94065891
  C           -2.76900782      -5.14609916       5.13522880
  C           -3.85955036      -1.77728198       3.21093411
--
  N           23.48174305       9.04678142     -18.97105327
  N           25.61636555       8.90468007     -22.55584110
  H           27.74938339      12.33744286     -22.05575106
  H           25.08916958      12.51100952     -17.66175604
  H           23.03095504       5.98449717     -21.52005591
  H           26.36438386       8.22563858     -24.27621558
  C           26.33745935      11.05345559     -21.33555667
  C           25.00583144      11.12450627     -19.14098678
  C           23.91528890       7.75568909     -21.06528147
units = au
no_com
no_reorient
}

set {
  e_convergence 10
  d_convergence 10
  scf_type df
  mp2_type df
  cc_type df
  freeze_core true
}

energy('sapt0/aug-cc-pvdz')

--------------------------------------------------------------------------

  //              Dimer HF             //
    Molecular point group: c1
  Charge       = 0
  Multiplicity = 1
  Basis Set: AUG-CC-PVDZ
    Blend: AUG-CC-PVDZ
  Basis Set: (AUG-CC-PVDZ AUX)
    Blend: AUG-CC-PVDZ-JKFIT
  @DF-RHF Final Energy:  -449.68745607390406
    Total Energy =                       -449.6874560739040589
  //            Monomer A HF           //
    Molecular point group: c1
  Multiplicity = 1
  Basis Set: AUG-CC-PVDZ
    Blend: AUG-CC-PVDZ
  Basis Set: (AUG-CC-PVDZ AUX)
    Blend: AUG-CC-PVDZ-JKFIT
  @DF-RHF Final Energy:  -224.84369627791443
    Total Energy =                       -224.8436962779144324
  //            Monomer B HF           //
    Molecular point group: c1

    Geometry (in Bohr), charge = 0, multiplicity = 1:

       Center              X                  Y                   Z               Mass
    ------------   -----------------  -----------------  -----------------  -----------------
      Gh(N)          -4.293096210000    -3.068374310000     5.305162310000    14.003074004430
      Gh(N)          -2.158473710000    -2.926272960000     1.720374480000    14.003074004430
      Gh(H)          -0.025455870000    -6.359035750000     2.220464520000     1.007825032230
      Gh(H)          -2.685669680000    -6.532602410000     6.614459540000     1.007825032230
      Gh(H)          -4.743884230000    -0.006090060000     2.756159680000     1.007825032230
      Gh(H)          -1.410455400000    -2.247231470000     0.000000000000     1.007825032230
      Gh(C)          -1.437379910000    -5.075048480000     2.940658910000    12.000000000000
      Gh(C)          -2.769007820000    -5.146099160000     5.135228800000    12.000000000000
      Gh(C)          -3.859550360000    -1.777281980000     3.210934110000    12.000000000000
         N           23.481743050000     9.046781420000   -18.971053270000    14.003074004430
         N           25.616365550000     8.904680070000   -22.555841100000    14.003074004430
         H           27.749383390000    12.337442860000   -22.055751060000     1.007825032230
         H           25.089169580000    12.511009520000   -17.661756040000     1.007825032230
         H           23.030955040000     5.984497170000   -21.520055910000     1.007825032230
         H           26.364383860000     8.225638580000   -24.276215580000     1.007825032230
         C           26.337459350000    11.053455590000   -21.335556670000    12.000000000000
         C           25.005831440000    11.124506270000   -19.140986780000    12.000000000000
         C           23.915288900000     7.755689090000   -21.065281470000    12.000000000000

  Charge       = 0
  Multiplicity = 1
  Basis Set: AUG-CC-PVDZ
    Blend: AUG-CC-PVDZ
  Basis Set: (AUG-CC-PVDZ AUX)
    Blend: AUG-CC-PVDZ-JKFIT

    Orbital Energies [Eh]
    ---------------------

    Doubly Occupied:

       1A    -15.637071     2A    -15.551216     3A    -11.300916
       4A    -11.263160     5A    -11.245653     6A     -1.352867
       7A     -1.169098     8A     -1.012098     9A     -0.824390
      10A     -0.803731    11A     -0.760666    12A     -0.610096
      13A     -0.603958    14A     -0.601922    15A     -0.570942
      16A     -0.435483    17A     -0.400464    18A     -0.320685

  @DF-RHF Final Energy:  -224.84369627756101

   => Energetics <=

    Nuclear Repulsion Energy =            164.0866960001651478
    One-Electron Energy =                -628.9319563073767085
    Two-Electron Energy =                 240.0015640296505524
    Total Energy =                       -224.8436962775610084

  Dipole Moment: [D]
     X:     2.0431      Y:    -0.4150      Z:    -3.3867     Total:     3.9769

    SAPT Results
  --------------------------------------------------------------------------------------------------------
    Electrostatics                 -0.06338520 [mEh]      -0.03977482 [kcal/mol]      -0.16641783 [kJ/mol]
      Elst10,r                     -0.06338520 [mEh]      -0.03977482 [kcal/mol]      -0.16641783 [kJ/mol]

    Exchange                        0.00000000 [mEh]       0.00000000 [kcal/mol]       0.00000000 [kJ/mol]
      Exch10                        0.00000000 [mEh]       0.00000000 [kcal/mol]       0.00000000 [kJ/mol]
      Exch10(S^2)                   0.00000000 [mEh]       0.00000000 [kcal/mol]       0.00000000 [kJ/mol]

    Induction                      -0.00013323 [mEh]      -0.00008360 [kcal/mol]      -0.00034978 [kJ/mol]
      Ind20,r                      -0.00012530 [mEh]      -0.00007863 [kcal/mol]      -0.00032897 [kJ/mol]
      Exch-Ind20,r                  0.00000000 [mEh]       0.00000000 [kcal/mol]       0.00000000 [kJ/mol]
      delta HF,r (2)               -0.00000793 [mEh]      -0.00000497 [kcal/mol]      -0.00002081 [kJ/mol]

    Dispersion                     -0.00037758 [mEh]      -0.00023694 [kcal/mol]      -0.00099135 [kJ/mol]
      Disp20                       -0.00037758 [mEh]      -0.00023694 [kcal/mol]      -0.00099135 [kJ/mol]
      Exch-Disp20                   0.00000000 [mEh]       0.00000000 [kcal/mol]       0.00000000 [kJ/mol]
      Disp20 (SS)                  -0.00018879 [mEh]      -0.00011847 [kcal/mol]      -0.00049567 [kJ/mol]
      Disp20 (OS)                  -0.00018879 [mEh]      -0.00011847 [kcal/mol]      -0.00049567 [kJ/mol]
      Exch-Disp20 (SS)              0.00000000 [mEh]       0.00000000 [kcal/mol]       0.00000000 [kJ/mol]
      Exch-Disp20 (OS)              0.00000000 [mEh]       0.00000000 [kcal/mol]       0.00000000 [kJ/mol]

  Total HF                         -0.06351843 [mEh]      -0.03985842 [kcal/mol]      -0.16676761 [kJ/mol]
  Total SAPT0                      -0.06389601 [mEh]      -0.04009535 [kcal/mol]      -0.16775896 [kJ/mol]

  Special recipe for scaled SAPT0 (see Manual):
    Electrostatics sSAPT0          -0.06338520 [mEh]      -0.03977482 [kcal/mol]      -0.16641783 [kJ/mol]
    Exchange sSAPT0                 0.00000000 [mEh]       0.00000000 [kcal/mol]       0.00000000 [kJ/mol]
    Induction sSAPT0               -0.00013323 [mEh]      -0.00008360 [kcal/mol]      -0.00034978 [kJ/mol]
    Dispersion sSAPT0              -0.00037758 [mEh]      -0.00023694 [kcal/mol]      -0.00099135 [kJ/mol]
  Total sSAPT0                     -0.06389601 [mEh]      -0.04009535 [kcal/mol]      -0.16775896 [kJ/mol]
  --------------------------------------------------------------------------------------------------------

*** Psi4 exiting successfully. Buy a developer a beer!
