                               Psi4 1.4rc3

  ==> Input File <==

--------------------------------------------------------------------------
# PSI4 file produced by CrystaLattE

# Generated from:               imidazole.xyz
# Psithon input for N-mer:      2mer-0+215
# Number of atoms per monomer:  [9, 9]
# Number of replicas:           2
# COM priority:                 4.234166479008e-05
# Minimum COM separations:      15.183
# Separation priority:          7.910727898868e-05
# Minimum monomer separations:  12.327
# Cutoff priority:              3.395902886315e-06
# Nuclear repulsion energy:     373.3177032418996

memory 7 GB

molecule Dimer_0_215 {
  N           -4.29309621      -3.06837431       5.30516231
  N           -2.15847371      -2.92627296       1.72037448
  H           -0.02545587      -6.35903575       2.22046452
  H           -2.68566968      -6.53260241       6.61445954
  H           -4.74388423      -0.00609006       2.75615968
  H           -1.41045540      -2.24723147       0.00000000
  C           -1.43737991      -5.07504848       2.94065891
  C           -2.76900782      -5.14609916       5.13522880
  C           -3.85955036      -1.77728198       3.21093411
--
  N          -18.17635845      12.15677114      19.58281390
  N          -20.31098095      12.29887249      23.16760174
  H          -22.44399879       8.86610970      22.66751170
  H          -19.78378498       8.69254304      18.27351668
  H          -17.72557043      15.21905539      22.13181654
  H          -21.05899925      12.97791398      24.88797622
  C          -21.03207475      10.15009697      21.94731730
  C          -19.70044684      10.07904629      19.75274741
  C          -18.60990430      13.44786347      21.67704210
units = au
no_com
no_reorient
}

set {
  e_convergence 10
  d_convergence 10
  scf_type df
  mp2_type df
  cc_type df
  freeze_core true
}

energy('sapt0/aug-cc-pvdz')

--------------------------------------------------------------------------

  //              Dimer HF             //
    Molecular point group: c1
  Charge       = 0
  Multiplicity = 1
  Basis Set: AUG-CC-PVDZ
    Blend: AUG-CC-PVDZ
  Basis Set: (AUG-CC-PVDZ AUX)
    Blend: AUG-CC-PVDZ-JKFIT
  @DF-RHF Final Energy:  -449.68729373454096
    Total Energy =                       -449.6872937345409582
  //            Monomer A HF           //
    Molecular point group: c1
  Multiplicity = 1
  Basis Set: AUG-CC-PVDZ
    Blend: AUG-CC-PVDZ
  Basis Set: (AUG-CC-PVDZ AUX)
    Blend: AUG-CC-PVDZ-JKFIT
  @DF-RHF Final Energy:  -224.84369628305623
    Total Energy =                       -224.8436962830562322
  //            Monomer B HF           //
    Molecular point group: c1

    Geometry (in Bohr), charge = 0, multiplicity = 1:

       Center              X                  Y                   Z               Mass
    ------------   -----------------  -----------------  -----------------  -----------------
      Gh(N)          -4.293096210000    -3.068374310000     5.305162310000    14.003074004430
      Gh(N)          -2.158473710000    -2.926272960000     1.720374480000    14.003074004430
      Gh(H)          -0.025455870000    -6.359035750000     2.220464520000     1.007825032230
      Gh(H)          -2.685669680000    -6.532602410000     6.614459540000     1.007825032230
      Gh(H)          -4.743884230000    -0.006090060000     2.756159680000     1.007825032230
      Gh(H)          -1.410455400000    -2.247231470000     0.000000000000     1.007825032230
      Gh(C)          -1.437379910000    -5.075048480000     2.940658910000    12.000000000000
      Gh(C)          -2.769007820000    -5.146099160000     5.135228800000    12.000000000000
      Gh(C)          -3.859550360000    -1.777281980000     3.210934110000    12.000000000000
         N          -18.176358450000    12.156771140000    19.582813900000    14.003074004430
         N          -20.310980950000    12.298872490000    23.167601740000    14.003074004430
         H          -22.443998790000     8.866109700000    22.667511700000     1.007825032230
         H          -19.783784980000     8.692543040000    18.273516680000     1.007825032230
         H          -17.725570430000    15.219055390000    22.131816540000     1.007825032230
         H          -21.058999250000    12.977913980000    24.887976220000     1.007825032230
         C          -21.032074750000    10.150096970000    21.947317300000    12.000000000000
         C          -19.700446840000    10.079046290000    19.752747410000    12.000000000000
         C          -18.609904300000    13.447863470000    21.677042100000    12.000000000000

  Charge       = 0
  Multiplicity = 1
  Basis Set: AUG-CC-PVDZ
    Blend: AUG-CC-PVDZ
  Basis Set: (AUG-CC-PVDZ AUX)
    Blend: AUG-CC-PVDZ-JKFIT

    Orbital Energies [Eh]
    ---------------------

    Doubly Occupied:

       1A    -15.637071     2A    -15.551216     3A    -11.300916
       4A    -11.263160     5A    -11.245653     6A     -1.352867
       7A     -1.169098     8A     -1.012098     9A     -0.824390
      10A     -0.803731    11A     -0.760666    12A     -0.610096
      13A     -0.603958    14A     -0.601922    15A     -0.570942
      16A     -0.435483    17A     -0.400464    18A     -0.320685

  @DF-RHF Final Energy:  -224.84369628171419

   => Energetics <=

    Nuclear Repulsion Energy =            164.0866958835654259
    One-Electron Energy =                -628.9319561338273843
    Two-Electron Energy =                 240.0015639685477709
    Total Energy =                       -224.8436962817141875

  Dipole Moment: [D]
     X:    -2.0431      Y:     0.4150      Z:     3.3867     Total:     3.9769

    SAPT Results
  --------------------------------------------------------------------------------------------------------
    Electrostatics                  0.09950335 [mEh]       0.06243930 [kcal/mol]       0.26124602 [kJ/mol]
      Elst10,r                      0.09950335 [mEh]       0.06243930 [kcal/mol]       0.26124602 [kJ/mol]

    Exchange                        0.00000000 [mEh]       0.00000000 [kcal/mol]       0.00000001 [kJ/mol]
      Exch10                        0.00000000 [mEh]       0.00000000 [kcal/mol]       0.00000001 [kJ/mol]
      Exch10(S^2)                   0.00000000 [mEh]       0.00000000 [kcal/mol]       0.00000001 [kJ/mol]

    Induction                      -0.00067313 [mEh]      -0.00042239 [kcal/mol]      -0.00176730 [kJ/mol]
      Ind20,r                      -0.00070556 [mEh]      -0.00044275 [kcal/mol]      -0.00185245 [kJ/mol]
      Exch-Ind20,r                  0.00000001 [mEh]       0.00000000 [kcal/mol]       0.00000002 [kJ/mol]
      delta HF,r (2)                0.00003243 [mEh]       0.00002035 [kcal/mol]       0.00008514 [kJ/mol]

    Dispersion                     -0.00258967 [mEh]      -0.00162504 [kcal/mol]      -0.00679917 [kJ/mol]
      Disp20                       -0.00258967 [mEh]      -0.00162504 [kcal/mol]      -0.00679918 [kJ/mol]
      Exch-Disp20                   0.00000000 [mEh]       0.00000000 [kcal/mol]       0.00000000 [kJ/mol]
      Disp20 (SS)                  -0.00129483 [mEh]      -0.00081252 [kcal/mol]      -0.00339959 [kJ/mol]
      Disp20 (OS)                  -0.00129483 [mEh]      -0.00081252 [kcal/mol]      -0.00339959 [kJ/mol]
      Exch-Disp20 (SS)              0.00000000 [mEh]       0.00000000 [kcal/mol]       0.00000000 [kJ/mol]
      Exch-Disp20 (OS)              0.00000000 [mEh]       0.00000000 [kcal/mol]       0.00000000 [kJ/mol]

  Total HF                          0.09883023 [mEh]       0.06201691 [kcal/mol]       0.25947873 [kJ/mol]
  Total SAPT0                       0.09624056 [mEh]       0.06039186 [kcal/mol]       0.25267956 [kJ/mol]

  Special recipe for scaled SAPT0 (see Manual):
    Electrostatics sSAPT0           0.09950335 [mEh]       0.06243930 [kcal/mol]       0.26124602 [kJ/mol]
    Exchange sSAPT0                 0.00000000 [mEh]       0.00000000 [kcal/mol]       0.00000001 [kJ/mol]
    Induction sSAPT0               -0.00067313 [mEh]      -0.00042239 [kcal/mol]      -0.00176730 [kJ/mol]
    Dispersion sSAPT0              -0.00258967 [mEh]      -0.00162504 [kcal/mol]      -0.00679917 [kJ/mol]
  Total sSAPT0                      0.09624056 [mEh]       0.06039186 [kcal/mol]       0.25267956 [kJ/mol]
  --------------------------------------------------------------------------------------------------------

*** Psi4 exiting successfully. Buy a developer a beer!
