                               Psi4 1.4rc3

  ==> Input File <==

--------------------------------------------------------------------------
# PSI4 file produced by CrystaLattE

# Generated from:               imidazole.xyz
# Psithon input for N-mer:      2mer-0+361
# Number of atoms per monomer:  [9, 9]
# Number of replicas:           2
# COM priority:                 1.494202479031e-05
# Minimum COM separations:      21.485
# Separation priority:          2.466568812542e-05
# Minimum monomer separations:  18.179
# Cutoff priority:              7.179997856697e-07
# Nuclear repulsion energy:     360.1098816289725

memory 7 GB

molecule Dimer_0_361 {
  N           -4.29309621      -3.06837431       5.30516231
  N           -2.15847371      -2.92627296       1.72037448
  H           -0.02545587      -6.35903575       2.22046452
  H           -2.68566968      -6.53260241       6.61445954
  H           -4.74388423      -0.00609006       2.75615968
  H           -1.41045540      -2.24723147       0.00000000
  C           -1.43737991      -5.07504848       2.94065891
  C           -2.76900782      -5.14609916       5.13522880
  C           -3.85955036      -1.77728198       3.21093411
--
  N           -4.29309621      37.53201355       5.30516231
  N           -2.15847371      37.67411491       1.72037448
  H           -0.02545587      34.24135211       2.22046452
  H           -2.68566968      34.06778545       6.61445954
  H           -4.74388423      40.59429780       2.75615968
  H           -1.41045540      38.35315639       0.00000000
  C           -1.43737991      35.52533938       2.94065891
  C           -2.76900782      35.45428870       5.13522880
  C           -3.85955036      38.82310588       3.21093411
units = au
no_com
no_reorient
}

set {
  e_convergence 10
  d_convergence 10
  scf_type df
  mp2_type df
  cc_type df
  freeze_core true
}

energy('sapt0/aug-cc-pvdz')

--------------------------------------------------------------------------

  //              Dimer HF             //
    Molecular point group: c1
  Charge       = 0
  Multiplicity = 1
  Basis Set: AUG-CC-PVDZ
    Blend: AUG-CC-PVDZ
  Basis Set: (AUG-CC-PVDZ AUX)
    Blend: AUG-CC-PVDZ-JKFIT
  @DF-RHF Final Energy:  -449.68735921408916
    Total Energy =                       -449.6873592140891560
  //            Monomer A HF           //
    Molecular point group: c1
  Multiplicity = 1
  Basis Set: AUG-CC-PVDZ
    Blend: AUG-CC-PVDZ
  Basis Set: (AUG-CC-PVDZ AUX)
    Blend: AUG-CC-PVDZ-JKFIT
  @DF-RHF Final Energy:  -224.84369627800299
    Total Energy =                       -224.8436962780029944
  //            Monomer B HF           //
    Molecular point group: c1

    Geometry (in Bohr), charge = 0, multiplicity = 1:

       Center              X                  Y                   Z               Mass
    ------------   -----------------  -----------------  -----------------  -----------------
      Gh(N)          -4.293096210000    -3.068374310000     5.305162310000    14.003074004430
      Gh(N)          -2.158473710000    -2.926272960000     1.720374480000    14.003074004430
      Gh(H)          -0.025455870000    -6.359035750000     2.220464520000     1.007825032230
      Gh(H)          -2.685669680000    -6.532602410000     6.614459540000     1.007825032230
      Gh(H)          -4.743884230000    -0.006090060000     2.756159680000     1.007825032230
      Gh(H)          -1.410455400000    -2.247231470000     0.000000000000     1.007825032230
      Gh(C)          -1.437379910000    -5.075048480000     2.940658910000    12.000000000000
      Gh(C)          -2.769007820000    -5.146099160000     5.135228800000    12.000000000000
      Gh(C)          -3.859550360000    -1.777281980000     3.210934110000    12.000000000000
         N           -4.293096210000    37.532013550000     5.305162310000    14.003074004430
         N           -2.158473710000    37.674114910000     1.720374480000    14.003074004430
         H           -0.025455870000    34.241352110000     2.220464520000     1.007825032230
         H           -2.685669680000    34.067785450000     6.614459540000     1.007825032230
         H           -4.743884230000    40.594297800000     2.756159680000     1.007825032230
         H           -1.410455400000    38.353156390000     0.000000000000     1.007825032230
         C           -1.437379910000    35.525339380000     2.940658910000    12.000000000000
         C           -2.769007820000    35.454288700000     5.135228800000    12.000000000000
         C           -3.859550360000    38.823105880000     3.210934110000    12.000000000000

  Charge       = 0
  Multiplicity = 1
  Basis Set: AUG-CC-PVDZ
    Blend: AUG-CC-PVDZ
  Basis Set: (AUG-CC-PVDZ AUX)
    Blend: AUG-CC-PVDZ-JKFIT

    Orbital Energies [Eh]
    ---------------------

    Doubly Occupied:

       1A    -15.637071     2A    -15.551216     3A    -11.300916
       4A    -11.263160     5A    -11.245653     6A     -1.352867
       7A     -1.169098     8A     -1.012098     9A     -0.824390
      10A     -0.803731    11A     -0.760666    12A     -0.610096
      13A     -0.603958    14A     -0.601922    15A     -0.570942
      16A     -0.435483    17A     -0.400464    18A     -0.320685

  @DF-RHF Final Energy:  -224.84369627850060

   => Energetics <=

    Nuclear Repulsion Energy =            164.0866959609569449
    One-Electron Energy =                -628.9319562336322633
    Two-Electron Energy =                 240.0015639941747168
    Total Energy =                       -224.8436962785006017

  Dipole Moment: [D]
     X:     2.0431      Y:     0.4150      Z:    -3.3867     Total:     3.9769

    SAPT Results
  --------------------------------------------------------------------------------------------------------
    Electrostatics                  0.03336994 [mEh]       0.02093995 [kcal/mol]       0.08761276 [kJ/mol]
      Elst10,r                      0.03336994 [mEh]       0.02093995 [kcal/mol]       0.08761276 [kJ/mol]

    Exchange                       -0.00000000 [mEh]      -0.00000000 [kcal/mol]      -0.00000000 [kJ/mol]
      Exch10                       -0.00000000 [mEh]      -0.00000000 [kcal/mol]      -0.00000000 [kJ/mol]
      Exch10(S^2)                  -0.00000000 [mEh]      -0.00000000 [kcal/mol]      -0.00000000 [kJ/mol]

    Induction                      -0.00002752 [mEh]      -0.00001727 [kcal/mol]      -0.00007227 [kJ/mol]
      Ind20,r                      -0.00003135 [mEh]      -0.00001967 [kcal/mol]      -0.00008232 [kJ/mol]
      Exch-Ind20,r                  0.00000000 [mEh]       0.00000000 [kcal/mol]       0.00000000 [kJ/mol]
      delta HF,r (2)                0.00000383 [mEh]       0.00000240 [kcal/mol]       0.00001005 [kJ/mol]

    Dispersion                     -0.00029049 [mEh]      -0.00018229 [kcal/mol]      -0.00076269 [kJ/mol]
      Disp20                       -0.00029049 [mEh]      -0.00018229 [kcal/mol]      -0.00076269 [kJ/mol]
      Exch-Disp20                   0.00000000 [mEh]       0.00000000 [kcal/mol]       0.00000000 [kJ/mol]
      Disp20 (SS)                  -0.00014525 [mEh]      -0.00009114 [kcal/mol]      -0.00038134 [kJ/mol]
      Disp20 (OS)                  -0.00014525 [mEh]      -0.00009114 [kcal/mol]      -0.00038134 [kJ/mol]
      Exch-Disp20 (SS)              0.00000000 [mEh]       0.00000000 [kcal/mol]       0.00000000 [kJ/mol]
      Exch-Disp20 (OS)              0.00000000 [mEh]       0.00000000 [kcal/mol]       0.00000000 [kJ/mol]

  Total HF                          0.03334241 [mEh]       0.02092268 [kcal/mol]       0.08754050 [kJ/mol]
  Total SAPT0                       0.03305192 [mEh]       0.02074039 [kcal/mol]       0.08677781 [kJ/mol]

  Special recipe for scaled SAPT0 (see Manual):
    Electrostatics sSAPT0           0.03336994 [mEh]       0.02093995 [kcal/mol]       0.08761276 [kJ/mol]
    Exchange sSAPT0                -0.00000000 [mEh]      -0.00000000 [kcal/mol]      -0.00000000 [kJ/mol]
    Induction sSAPT0               -0.00002752 [mEh]      -0.00001727 [kcal/mol]      -0.00007227 [kJ/mol]
    Dispersion sSAPT0              -0.00029049 [mEh]      -0.00018229 [kcal/mol]      -0.00076269 [kJ/mol]
  Total sSAPT0                      0.03305192 [mEh]       0.02074039 [kcal/mol]       0.08677781 [kJ/mol]
  --------------------------------------------------------------------------------------------------------

*** Psi4 exiting successfully. Buy a developer a beer!
