                               Psi4 1.4rc3

  ==> Input File <==

--------------------------------------------------------------------------
# PSI4 file produced by CrystaLattE

# Generated from:               imidazole.xyz
# Psithon input for N-mer:      2mer-0+76
# Number of atoms per monomer:  [9, 9]
# Number of replicas:           2
# COM priority:                 5.523305665966e-05
# Minimum COM separations:      13.895
# Separation priority:          1.217817545111e-04
# Minimum monomer separations:  10.676
# Cutoff priority:              6.036376256734e-06
# Nuclear repulsion energy:     377.59510900322107

memory 7 GB

molecule Dimer_0_76 {
  N           -4.29309621      -3.06837431       5.30516231
  N           -2.15847371      -2.92627296       1.72037448
  H           -0.02545587      -6.35903575       2.22046452
  H           -2.68566968      -6.53260241       6.61445954
  H           -4.74388423      -0.00609006       2.75615968
  H           -1.41045540      -2.24723147       0.00000000
  C           -1.43737991      -5.07504848       2.94065891
  C           -2.76900782      -5.14609916       5.13522880
  C           -3.85955036      -1.77728198       3.21093411
--
  N            5.11629487      22.30686810       3.39867018
  N            2.98167237      22.44896946       6.98345802
  H            0.84865452      19.01620666       6.48336797
  H            3.50886834      18.84264001       2.08937295
  H            5.56708288      25.36915235       5.94767282
  H            2.23365406      23.12801094       8.70383249
  C            2.26057857      20.30019393       5.76317358
  C            3.59220648      20.22914325       3.56860369
  C            4.68274902      23.59796043       5.49289838
units = au
no_com
no_reorient
}

set {
  e_convergence 10
  d_convergence 10
  scf_type df
  mp2_type df
  cc_type df
  freeze_core true
}

energy('sapt0/aug-cc-pvdz')

--------------------------------------------------------------------------

  //              Dimer HF             //
    Molecular point group: c1
  Charge       = 0
  Multiplicity = 1
  Basis Set: AUG-CC-PVDZ
    Blend: AUG-CC-PVDZ
  Basis Set: (AUG-CC-PVDZ AUX)
    Blend: AUG-CC-PVDZ-JKFIT
  @DF-RHF Final Energy:  -449.68749922794871
    Total Energy =                       -449.6874992279487060
  //            Monomer A HF           //
    Molecular point group: c1
  Multiplicity = 1
  Basis Set: AUG-CC-PVDZ
    Blend: AUG-CC-PVDZ
  Basis Set: (AUG-CC-PVDZ AUX)
    Blend: AUG-CC-PVDZ-JKFIT
  @DF-RHF Final Energy:  -224.84369636312431
    Total Energy =                       -224.8436963631243088
  //            Monomer B HF           //
    Molecular point group: c1

    Geometry (in Bohr), charge = 0, multiplicity = 1:

       Center              X                  Y                   Z               Mass
    ------------   -----------------  -----------------  -----------------  -----------------
      Gh(N)          -4.293096210000    -3.068374310000     5.305162310000    14.003074004430
      Gh(N)          -2.158473710000    -2.926272960000     1.720374480000    14.003074004430
      Gh(H)          -0.025455870000    -6.359035750000     2.220464520000     1.007825032230
      Gh(H)          -2.685669680000    -6.532602410000     6.614459540000     1.007825032230
      Gh(H)          -4.743884230000    -0.006090060000     2.756159680000     1.007825032230
      Gh(H)          -1.410455400000    -2.247231470000     0.000000000000     1.007825032230
      Gh(C)          -1.437379910000    -5.075048480000     2.940658910000    12.000000000000
      Gh(C)          -2.769007820000    -5.146099160000     5.135228800000    12.000000000000
      Gh(C)          -3.859550360000    -1.777281980000     3.210934110000    12.000000000000
         N            5.116294870000    22.306868100000     3.398670180000    14.003074004430
         N            2.981672370000    22.448969460000     6.983458020000    14.003074004430
         H            0.848654520000    19.016206660000     6.483367970000     1.007825032230
         H            3.508868340000    18.842640010000     2.089372950000     1.007825032230
         H            5.567082880000    25.369152350000     5.947672820000     1.007825032230
         H            2.233654060000    23.128010940000     8.703832490000     1.007825032230
         C            2.260578570000    20.300193930000     5.763173580000    12.000000000000
         C            3.592206480000    20.229143250000     3.568603690000    12.000000000000
         C            4.682749020000    23.597960430000     5.492898380000    12.000000000000

  Charge       = 0
  Multiplicity = 1
  Basis Set: AUG-CC-PVDZ
    Blend: AUG-CC-PVDZ
  Basis Set: (AUG-CC-PVDZ AUX)
    Blend: AUG-CC-PVDZ-JKFIT

    Orbital Energies [Eh]
    ---------------------

    Doubly Occupied:

       1A    -15.637071     2A    -15.551216     3A    -11.300916
       4A    -11.263160     5A    -11.245653     6A     -1.352867
       7A     -1.169098     8A     -1.012098     9A     -0.824390
      10A     -0.803731    11A     -0.760666    12A     -0.610096
      13A     -0.603958    14A     -0.601922    15A     -0.570942
      16A     -0.435483    17A     -0.400464    18A     -0.320685

  @DF-RHF Final Energy:  -224.84369638095021

   => Energetics <=

    Nuclear Repulsion Energy =            164.0866958663273465
    One-Electron Energy =                -628.9319567192765135
    Two-Electron Energy =                 240.0015644719989893
    Total Energy =                       -224.8436963809502060

  Dipole Moment: [D]
     X:    -2.0431      Y:     0.4150      Z:     3.3867     Total:     3.9769

    SAPT Results
  --------------------------------------------------------------------------------------------------------
    Electrostatics                 -0.10600305 [mEh]      -0.06651792 [kcal/mol]      -0.27831098 [kJ/mol]
      Elst10,r                     -0.10600305 [mEh]      -0.06651792 [kcal/mol]      -0.27831098 [kJ/mol]

    Exchange                        0.00000005 [mEh]       0.00000003 [kcal/mol]       0.00000014 [kJ/mol]
      Exch10                        0.00000005 [mEh]       0.00000003 [kcal/mol]       0.00000014 [kJ/mol]
      Exch10(S^2)                   0.00000005 [mEh]       0.00000003 [kcal/mol]       0.00000014 [kJ/mol]

    Induction                      -0.00048088 [mEh]      -0.00030175 [kcal/mol]      -0.00126254 [kJ/mol]
      Ind20,r                      -0.00046521 [mEh]      -0.00029192 [kcal/mol]      -0.00122140 [kJ/mol]
      Exch-Ind20,r                  0.00000013 [mEh]       0.00000008 [kcal/mol]       0.00000035 [kJ/mol]
      delta HF,r (2)               -0.00001580 [mEh]      -0.00000992 [kcal/mol]      -0.00004149 [kJ/mol]

    Dispersion                     -0.00430363 [mEh]      -0.00270057 [kcal/mol]      -0.01129919 [kJ/mol]
      Disp20                       -0.00430365 [mEh]      -0.00270058 [kcal/mol]      -0.01129923 [kJ/mol]
      Exch-Disp20                   0.00000001 [mEh]       0.00000001 [kcal/mol]       0.00000003 [kJ/mol]
      Disp20 (SS)                  -0.00215182 [mEh]      -0.00135029 [kcal/mol]      -0.00564961 [kJ/mol]
      Disp20 (OS)                  -0.00215182 [mEh]      -0.00135029 [kcal/mol]      -0.00564961 [kJ/mol]
      Exch-Disp20 (SS)              0.00000001 [mEh]       0.00000001 [kcal/mol]       0.00000003 [kJ/mol]
      Exch-Disp20 (OS)              0.00000000 [mEh]       0.00000000 [kcal/mol]       0.00000001 [kJ/mol]

  Total HF                         -0.10648387 [mEh]      -0.06681964 [kcal/mol]      -0.27957337 [kJ/mol]
  Total SAPT0                      -0.11078751 [mEh]      -0.06952021 [kcal/mol]      -0.29087256 [kJ/mol]

  Special recipe for scaled SAPT0 (see Manual):
    Electrostatics sSAPT0          -0.10600305 [mEh]      -0.06651792 [kcal/mol]      -0.27831098 [kJ/mol]
    Exchange sSAPT0                 0.00000005 [mEh]       0.00000003 [kcal/mol]       0.00000014 [kJ/mol]
    Induction sSAPT0               -0.00048088 [mEh]      -0.00030175 [kcal/mol]      -0.00126254 [kJ/mol]
    Dispersion sSAPT0              -0.00430363 [mEh]      -0.00270057 [kcal/mol]      -0.01129919 [kJ/mol]
  Total sSAPT0                     -0.11078751 [mEh]      -0.06952021 [kcal/mol]      -0.29087256 [kJ/mol]
  --------------------------------------------------------------------------------------------------------

*** Psi4 exiting successfully. Buy a developer a beer!
