                               Psi4 1.4rc3

  ==> Input File <==

--------------------------------------------------------------------------
# PSI4 file produced by CrystaLattE

# Generated from:               imidazole.xyz
# Psithon input for N-mer:      2mer-0+386
# Number of atoms per monomer:  [9, 9]
# Number of replicas:           2
# COM priority:                 1.128266296661e-05
# Minimum COM separations:      23.594
# Separation priority:          2.008739295154e-05
# Minimum monomer separations:  19.467
# Cutoff priority:              5.460487708095e-07
# Nuclear repulsion energy:     357.28941217292584

memory 7 GB

molecule Dimer_0_386 {
  N           -4.29309621      -3.06837431       5.30516231
  N           -2.15847371      -2.92627296       1.72037448
  H           -0.02545587      -6.35903575       2.22046452
  H           -2.68566968      -6.53260241       6.61445954
  H           -4.74388423      -0.00609006       2.75615968
  H           -1.41045540      -2.24723147       0.00000000
  C           -1.43737991      -5.07504848       2.94065891
  C           -2.76900782      -5.14609916       5.13522880
  C           -3.85955036      -1.77728198       3.21093411
--
  N           -0.69263386      27.38191658     -27.06312513
  N            1.44198864      27.52401794     -30.64791297
  H            3.57500648      24.09125515     -30.14782292
  H            0.91479267      23.91768849     -25.75382790
  H           -1.14342188      30.44420084     -29.61212777
  H            2.19000694      28.20305943     -32.36828744
  C            2.16308244      25.37524241     -29.42762853
  C            0.83145453      25.30419173     -27.23305864
  C           -0.25908801      28.67300892     -29.15735333
units = au
no_com
no_reorient
}

set {
  e_convergence 10
  d_convergence 10
  scf_type df
  mp2_type df
  cc_type df
  freeze_core true
}

energy('sapt0/aug-cc-pvdz')

--------------------------------------------------------------------------

  //              Dimer HF             //
    Molecular point group: c1
  Charge       = 0
  Multiplicity = 1
  Basis Set: AUG-CC-PVDZ
    Blend: AUG-CC-PVDZ
  Basis Set: (AUG-CC-PVDZ AUX)
    Blend: AUG-CC-PVDZ-JKFIT
  @DF-RHF Final Energy:  -449.68740734135309
    Total Energy =                       -449.6874073413530937
  //            Monomer A HF           //
    Molecular point group: c1
  Multiplicity = 1
  Basis Set: AUG-CC-PVDZ
    Blend: AUG-CC-PVDZ
  Basis Set: (AUG-CC-PVDZ AUX)
    Blend: AUG-CC-PVDZ-JKFIT
  @DF-RHF Final Energy:  -224.84369627739517
    Total Energy =                       -224.8436962773951677
  //            Monomer B HF           //
    Molecular point group: c1

    Geometry (in Bohr), charge = 0, multiplicity = 1:

       Center              X                  Y                   Z               Mass
    ------------   -----------------  -----------------  -----------------  -----------------
      Gh(N)          -4.293096210000    -3.068374310000     5.305162310000    14.003074004430
      Gh(N)          -2.158473710000    -2.926272960000     1.720374480000    14.003074004430
      Gh(H)          -0.025455870000    -6.359035750000     2.220464520000     1.007825032230
      Gh(H)          -2.685669680000    -6.532602410000     6.614459540000     1.007825032230
      Gh(H)          -4.743884230000    -0.006090060000     2.756159680000     1.007825032230
      Gh(H)          -1.410455400000    -2.247231470000     0.000000000000     1.007825032230
      Gh(C)          -1.437379910000    -5.075048480000     2.940658910000    12.000000000000
      Gh(C)          -2.769007820000    -5.146099160000     5.135228800000    12.000000000000
      Gh(C)          -3.859550360000    -1.777281980000     3.210934110000    12.000000000000
         N           -0.692633860000    27.381916580000   -27.063125130000    14.003074004430
         N            1.441988640000    27.524017940000   -30.647912970000    14.003074004430
         H            3.575006480000    24.091255150000   -30.147822920000     1.007825032230
         H            0.914792670000    23.917688490000   -25.753827900000     1.007825032230
         H           -1.143421880000    30.444200840000   -29.612127770000     1.007825032230
         H            2.190006940000    28.203059430000   -32.368287440000     1.007825032230
         C            2.163082440000    25.375242410000   -29.427628530000    12.000000000000
         C            0.831454530000    25.304191730000   -27.233058640000    12.000000000000
         C           -0.259088010000    28.673008920000   -29.157353330000    12.000000000000

  Charge       = 0
  Multiplicity = 1
  Basis Set: AUG-CC-PVDZ
    Blend: AUG-CC-PVDZ
  Basis Set: (AUG-CC-PVDZ AUX)
    Blend: AUG-CC-PVDZ-JKFIT

    Orbital Energies [Eh]
    ---------------------

    Doubly Occupied:

       1A    -15.637071     2A    -15.551216     3A    -11.300916
       4A    -11.263160     5A    -11.245653     6A     -1.352867
       7A     -1.169098     8A     -1.012098     9A     -0.824390
      10A     -0.803731    11A     -0.760666    12A     -0.610096
      13A     -0.603958    14A     -0.601922    15A     -0.570942
      16A     -0.435483    17A     -0.400464    18A     -0.320685

  @DF-RHF Final Energy:  -224.84369627826609

   => Energetics <=

    Nuclear Repulsion Energy =            164.0866957764485505
    One-Electron Energy =                -628.9319558643722985
    Two-Electron Energy =                 240.0015638096576538
    Total Energy =                       -224.8436962782660942

  Dipole Moment: [D]
     X:     2.0431      Y:     0.4150      Z:    -3.3867     Total:     3.9769

    SAPT Results
  --------------------------------------------------------------------------------------------------------
    Electrostatics                 -0.01473359 [mEh]      -0.00924547 [kcal/mol]      -0.03868304 [kJ/mol]
      Elst10,r                     -0.01473359 [mEh]      -0.00924547 [kcal/mol]      -0.03868304 [kJ/mol]

    Exchange                        0.00000000 [mEh]       0.00000000 [kcal/mol]       0.00000000 [kJ/mol]
      Exch10                        0.00000000 [mEh]       0.00000000 [kcal/mol]       0.00000000 [kJ/mol]
      Exch10(S^2)                   0.00000000 [mEh]       0.00000000 [kcal/mol]       0.00000000 [kJ/mol]

    Induction                      -0.00005210 [mEh]      -0.00003269 [kcal/mol]      -0.00013678 [kJ/mol]
      Ind20,r                      -0.00004618 [mEh]      -0.00002898 [kcal/mol]      -0.00012124 [kJ/mol]
      Exch-Ind20,r                  0.00000000 [mEh]       0.00000000 [kcal/mol]       0.00000000 [kJ/mol]
      delta HF,r (2)               -0.00000592 [mEh]      -0.00000372 [kcal/mol]      -0.00001555 [kJ/mol]

    Dispersion                     -0.00018495 [mEh]      -0.00011606 [kcal/mol]      -0.00048559 [kJ/mol]
      Disp20                       -0.00018495 [mEh]      -0.00011606 [kcal/mol]      -0.00048559 [kJ/mol]
      Exch-Disp20                   0.00000000 [mEh]       0.00000000 [kcal/mol]       0.00000000 [kJ/mol]
      Disp20 (SS)                  -0.00009248 [mEh]      -0.00005803 [kcal/mol]      -0.00024279 [kJ/mol]
      Disp20 (OS)                  -0.00009248 [mEh]      -0.00005803 [kcal/mol]      -0.00024279 [kJ/mol]
      Exch-Disp20 (SS)              0.00000000 [mEh]       0.00000000 [kcal/mol]       0.00000000 [kJ/mol]
      Exch-Disp20 (OS)              0.00000000 [mEh]       0.00000000 [kcal/mol]       0.00000000 [kJ/mol]

  Total HF                         -0.01478569 [mEh]      -0.00927816 [kcal/mol]      -0.03881983 [kJ/mol]
  Total SAPT0                      -0.01497064 [mEh]      -0.00939422 [kcal/mol]      -0.03930542 [kJ/mol]

  Special recipe for scaled SAPT0 (see Manual):
    Electrostatics sSAPT0          -0.01473359 [mEh]      -0.00924547 [kcal/mol]      -0.03868304 [kJ/mol]
    Exchange sSAPT0                 0.00000000 [mEh]       0.00000000 [kcal/mol]       0.00000000 [kJ/mol]
    Induction sSAPT0               -0.00005210 [mEh]      -0.00003269 [kcal/mol]      -0.00013678 [kJ/mol]
    Dispersion sSAPT0              -0.00018495 [mEh]      -0.00011606 [kcal/mol]      -0.00048559 [kJ/mol]
  Total sSAPT0                     -0.01497064 [mEh]      -0.00939422 [kcal/mol]      -0.03930542 [kJ/mol]
  --------------------------------------------------------------------------------------------------------

*** Psi4 exiting successfully. Buy a developer a beer!
