                               Psi4 1.4rc3

  ==> Input File <==

--------------------------------------------------------------------------
# PSI4 file produced by CrystaLattE

# Generated from:               imidazole.xyz
# Psithon input for N-mer:      2mer-0+38
# Number of atoms per monomer:  [9, 9]
# Number of replicas:           2
# COM priority:                 1.847092969103e-04
# Minimum COM separations:      9.292
# Separation priority:          9.028008956594e-04
# Minimum monomer separations:  5.475
# Cutoff priority:              8.725479617480e-05
# Nuclear repulsion energy:     402.48533767366644

memory 7 GB

molecule Dimer_0_38 {
  N           -4.29309621      -3.06837431       5.30516231
  N           -2.15847371      -2.92627296       1.72037448
  H           -0.02545587      -6.35903575       2.22046452
  H           -2.68566968      -6.53260241       6.61445954
  H           -4.74388423      -0.00609006       2.75615968
  H           -1.41045540      -2.24723147       0.00000000
  C           -1.43737991      -5.07504848       2.94065891
  C           -2.76900782      -5.14609916       5.13522880
  C           -3.85955036      -1.77728198       3.21093411
--
  N           10.03518522     -13.21847128       5.30516231
  N           12.16980772     -13.07636992       1.72037448
  H           14.30282556     -16.50913271       2.22046452
  H           11.64261175     -16.68269937       6.61445954
  H            9.58439720     -10.15618702       2.75615968
  H           12.91782602     -12.39732843       0.00000000
  C           12.89090152     -15.22514545       2.94065891
  C           11.55927361     -15.29619613       5.13522880
  C           10.46873107     -11.92737894       3.21093411
units = au
no_com
no_reorient
}

set {
  e_convergence 10
  d_convergence 10
  scf_type df
  mp2_type df
  cc_type df
  freeze_core true
}

energy('sapt0/aug-cc-pvdz')

--------------------------------------------------------------------------

  //              Dimer HF             //
    Molecular point group: c1
  Charge       = 0
  Multiplicity = 1
  Basis Set: AUG-CC-PVDZ
    Blend: AUG-CC-PVDZ
  Basis Set: (AUG-CC-PVDZ AUX)
    Blend: AUG-CC-PVDZ-JKFIT
  @DF-RHF Final Energy:  -449.68712238648629
    Total Energy =                       -449.6871223864862941
  //            Monomer A HF           //
    Molecular point group: c1
  Multiplicity = 1
  Basis Set: AUG-CC-PVDZ
    Blend: AUG-CC-PVDZ
  Basis Set: (AUG-CC-PVDZ AUX)
    Blend: AUG-CC-PVDZ-JKFIT
  @DF-RHF Final Energy:  -224.84371409952098
    Total Energy =                       -224.8437140995209802
  //            Monomer B HF           //
    Molecular point group: c1

    Geometry (in Bohr), charge = 0, multiplicity = 1:

       Center              X                  Y                   Z               Mass
    ------------   -----------------  -----------------  -----------------  -----------------
      Gh(N)          -4.293096210000    -3.068374310000     5.305162310000    14.003074004430
      Gh(N)          -2.158473710000    -2.926272960000     1.720374480000    14.003074004430
      Gh(H)          -0.025455870000    -6.359035750000     2.220464520000     1.007825032230
      Gh(H)          -2.685669680000    -6.532602410000     6.614459540000     1.007825032230
      Gh(H)          -4.743884230000    -0.006090060000     2.756159680000     1.007825032230
      Gh(H)          -1.410455400000    -2.247231470000     0.000000000000     1.007825032230
      Gh(C)          -1.437379910000    -5.075048480000     2.940658910000    12.000000000000
      Gh(C)          -2.769007820000    -5.146099160000     5.135228800000    12.000000000000
      Gh(C)          -3.859550360000    -1.777281980000     3.210934110000    12.000000000000
         N           10.035185220000   -13.218471280000     5.305162310000    14.003074004430
         N           12.169807720000   -13.076369920000     1.720374480000    14.003074004430
         H           14.302825560000   -16.509132710000     2.220464520000     1.007825032230
         H           11.642611750000   -16.682699370000     6.614459540000     1.007825032230
         H            9.584397200000   -10.156187020000     2.756159680000     1.007825032230
         H           12.917826020000   -12.397328430000     0.000000000000     1.007825032230
         C           12.890901520000   -15.225145450000     2.940658910000    12.000000000000
         C           11.559273610000   -15.296196130000     5.135228800000    12.000000000000
         C           10.468731070000   -11.927378940000     3.210934110000    12.000000000000

  Charge       = 0
  Multiplicity = 1
  Basis Set: AUG-CC-PVDZ
    Blend: AUG-CC-PVDZ
  Basis Set: (AUG-CC-PVDZ AUX)
    Blend: AUG-CC-PVDZ-JKFIT

    Orbital Energies [Eh]
    ---------------------

    Doubly Occupied:

       1A    -15.637075     2A    -15.551221     3A    -11.300912
       4A    -11.263161     5A    -11.245652     6A     -1.352867
       7A     -1.169100     8A     -1.012099     9A     -0.824390
      10A     -0.803732    11A     -0.760668    12A     -0.610097
      13A     -0.603957    14A     -0.601924    15A     -0.570944
      16A     -0.435487    17A     -0.400467    18A     -0.320685

  @DF-RHF Final Energy:  -224.84370734393832

   => Energetics <=

    Nuclear Repulsion Energy =            164.0866958829427631
    One-Electron Energy =                -628.9319336518088903
    Two-Electron Energy =                 240.0015304249278074
    Total Energy =                       -224.8437073439383198

  Dipole Moment: [D]
     X:     2.0425      Y:     0.4153      Z:    -3.3860     Total:     3.9761

    SAPT Results
  --------------------------------------------------------------------------------------------------------
    Electrostatics                  0.30698534 [mEh]       0.19263621 [kcal/mol]       0.80598991 [kJ/mol]
      Elst10,r                      0.30698534 [mEh]       0.19263621 [kcal/mol]       0.80598991 [kJ/mol]

    Exchange                        0.00003332 [mEh]       0.00002091 [kcal/mol]       0.00008747 [kJ/mol]
      Exch10                        0.00003332 [mEh]       0.00002091 [kcal/mol]       0.00008747 [kJ/mol]
      Exch10(S^2)                   0.00003332 [mEh]       0.00002091 [kcal/mol]       0.00008747 [kJ/mol]

    Induction                      -0.00796169 [mEh]      -0.00499603 [kcal/mol]      -0.02090340 [kJ/mol]
      Ind20,r                      -0.00817895 [mEh]      -0.00513237 [kcal/mol]      -0.02147382 [kJ/mol]
      Exch-Ind20,r                  0.00002732 [mEh]       0.00001714 [kcal/mol]       0.00007173 [kJ/mol]
      delta HF,r (2)                0.00018994 [mEh]       0.00011919 [kcal/mol]       0.00049869 [kJ/mol]

    Dispersion                     -0.06554907 [mEh]      -0.04113266 [kcal/mol]      -0.17209905 [kJ/mol]
      Disp20                       -0.06555710 [mEh]      -0.04113770 [kcal/mol]      -0.17212015 [kJ/mol]
      Exch-Disp20                   0.00000804 [mEh]       0.00000504 [kcal/mol]       0.00002110 [kJ/mol]
      Disp20 (SS)                  -0.03277855 [mEh]      -0.02056885 [kcal/mol]      -0.08606008 [kJ/mol]
      Disp20 (OS)                  -0.03277855 [mEh]      -0.02056885 [kcal/mol]      -0.08606008 [kJ/mol]
      Exch-Disp20 (SS)              0.00000611 [mEh]       0.00000383 [kcal/mol]       0.00001605 [kJ/mol]
      Exch-Disp20 (OS)              0.00000193 [mEh]       0.00000121 [kcal/mol]       0.00000506 [kJ/mol]

  Total HF                          0.29905697 [mEh]       0.18766108 [kcal/mol]       0.78517397 [kJ/mol]
  Total SAPT0                       0.23350791 [mEh]       0.14652842 [kcal/mol]       0.61307493 [kJ/mol]

  Special recipe for scaled SAPT0 (see Manual):
    Electrostatics sSAPT0           0.30698534 [mEh]       0.19263621 [kcal/mol]       0.80598991 [kJ/mol]
    Exchange sSAPT0                 0.00003332 [mEh]       0.00002091 [kcal/mol]       0.00008747 [kJ/mol]
    Induction sSAPT0               -0.00796169 [mEh]      -0.00499603 [kcal/mol]      -0.02090340 [kJ/mol]
    Dispersion sSAPT0              -0.06554907 [mEh]      -0.04113266 [kcal/mol]      -0.17209905 [kJ/mol]
  Total sSAPT0                      0.23350791 [mEh]       0.14652842 [kcal/mol]       0.61307493 [kJ/mol]
  --------------------------------------------------------------------------------------------------------

*** Psi4 exiting successfully. Buy a developer a beer!
