                               Psi4 1.4rc3

  ==> Input File <==

--------------------------------------------------------------------------
# PSI4 file produced by CrystaLattE

# Generated from:               imidazole.xyz
# Psithon input for N-mer:      2mer-0+437
# Number of atoms per monomer:  [9, 9]
# Number of replicas:           1
# COM priority:                 1.773989300134e-05
# Minimum COM separations:      20.290
# Separation priority:          1.909627002723e-05
# Minimum monomer separations:  19.798
# Cutoff priority:              5.104243637918e-07
# Nuclear repulsion energy:     361.8298611394216

memory 7 GB

molecule Dimer_0_437 {
  N           -4.29309621      -3.06837431       5.30516231
  N           -2.15847371      -2.92627296       1.72037448
  H           -0.02545587      -6.35903575       2.22046452
  H           -2.68566968      -6.53260241       6.61445954
  H           -4.74388423      -0.00609006       2.75615968
  H           -1.41045540      -2.24723147       0.00000000
  C           -1.43737991      -5.07504848       2.94065891
  C           -2.76900782      -5.14609916       5.13522880
  C           -3.85955036      -1.77728198       3.21093411
--
  N           20.32629989      14.12182991      27.67488576
  N           18.19167739      13.97972855      31.25967360
  H           16.05865955      17.41249134      30.75958356
  H           18.71887336      17.58605800      26.36558854
  H           20.77708791      11.05954565      30.22388840
  H           17.44365909      13.30068706      32.98004808
  C           17.47058359      16.12850408      30.03938916
  C           18.80221150      16.19955476      27.84481927
  C           19.89275404      12.83073757      29.76911396
units = au
no_com
no_reorient
}

set {
  e_convergence 10
  d_convergence 10
  scf_type df
  mp2_type df
  cc_type df
  freeze_core true
}

energy('sapt0/aug-cc-pvdz')

--------------------------------------------------------------------------

  //              Dimer HF             //
    Molecular point group: c1
  Charge       = 0
  Multiplicity = 1
  Basis Set: AUG-CC-PVDZ
    Blend: AUG-CC-PVDZ
  Basis Set: (AUG-CC-PVDZ AUX)
    Blend: AUG-CC-PVDZ-JKFIT
  @DF-RHF Final Energy:  -449.68741908179061
    Total Energy =                       -449.6874190817906083
  //            Monomer A HF           //
    Molecular point group: c1
  Multiplicity = 1
  Basis Set: AUG-CC-PVDZ
    Blend: AUG-CC-PVDZ
  Basis Set: (AUG-CC-PVDZ AUX)
    Blend: AUG-CC-PVDZ-JKFIT
  @DF-RHF Final Energy:  -224.84369627873215
    Total Energy =                       -224.8436962787321534
  //            Monomer B HF           //
    Molecular point group: c1

    Geometry (in Bohr), charge = 0, multiplicity = 1:

       Center              X                  Y                   Z               Mass
    ------------   -----------------  -----------------  -----------------  -----------------
      Gh(N)          -4.293096210000    -3.068374310000     5.305162310000    14.003074004430
      Gh(N)          -2.158473710000    -2.926272960000     1.720374480000    14.003074004430
      Gh(H)          -0.025455870000    -6.359035750000     2.220464520000     1.007825032230
      Gh(H)          -2.685669680000    -6.532602410000     6.614459540000     1.007825032230
      Gh(H)          -4.743884230000    -0.006090060000     2.756159680000     1.007825032230
      Gh(H)          -1.410455400000    -2.247231470000     0.000000000000     1.007825032230
      Gh(C)          -1.437379910000    -5.075048480000     2.940658910000    12.000000000000
      Gh(C)          -2.769007820000    -5.146099160000     5.135228800000    12.000000000000
      Gh(C)          -3.859550360000    -1.777281980000     3.210934110000    12.000000000000
         N           20.326299890000    14.121829910000    27.674885760000    14.003074004430
         N           18.191677390000    13.979728550000    31.259673600000    14.003074004430
         H           16.058659550000    17.412491340000    30.759583560000     1.007825032230
         H           18.718873360000    17.586058000000    26.365588540000     1.007825032230
         H           20.777087910000    11.059545650000    30.223888400000     1.007825032230
         H           17.443659090000    13.300687060000    32.980048080000     1.007825032230
         C           17.470583590000    16.128504080000    30.039389160000    12.000000000000
         C           18.802211500000    16.199554760000    27.844819270000    12.000000000000
         C           19.892754040000    12.830737570000    29.769113960000    12.000000000000

  Charge       = 0
  Multiplicity = 1
  Basis Set: AUG-CC-PVDZ
    Blend: AUG-CC-PVDZ
  Basis Set: (AUG-CC-PVDZ AUX)
    Blend: AUG-CC-PVDZ-JKFIT

    Orbital Energies [Eh]
    ---------------------

    Doubly Occupied:

       1A    -15.637071     2A    -15.551216     3A    -11.300916
       4A    -11.263160     5A    -11.245653     6A     -1.352867
       7A     -1.169098     8A     -1.012098     9A     -0.824390
      10A     -0.803731    11A     -0.760666    12A     -0.610096
      13A     -0.603958    14A     -0.601922    15A     -0.570942
      16A     -0.435483    17A     -0.400464    18A     -0.320685

  @DF-RHF Final Energy:  -224.84369627881398

   => Energetics <=

    Nuclear Repulsion Energy =            164.0866957620658866
    One-Electron Energy =                -628.9319558424299430
    Two-Electron Energy =                 240.0015638015500485
    Total Energy =                       -224.8436962788139795

  Dipole Moment: [D]
     X:    -2.0431      Y:    -0.4150      Z:     3.3867     Total:     3.9769

    SAPT Results
  --------------------------------------------------------------------------------------------------------
    Electrostatics                 -0.02648707 [mEh]      -0.01662089 [kcal/mol]      -0.06954179 [kJ/mol]
      Elst10,r                     -0.02648707 [mEh]      -0.01662089 [kcal/mol]      -0.06954179 [kJ/mol]

    Exchange                        0.00000000 [mEh]       0.00000000 [kcal/mol]       0.00000000 [kJ/mol]
      Exch10                        0.00000000 [mEh]       0.00000000 [kcal/mol]       0.00000000 [kJ/mol]
      Exch10(S^2)                   0.00000000 [mEh]       0.00000000 [kcal/mol]       0.00000000 [kJ/mol]

    Induction                      -0.00003718 [mEh]      -0.00002333 [kcal/mol]      -0.00009761 [kJ/mol]
      Ind20,r                      -0.00004041 [mEh]      -0.00002536 [kcal/mol]      -0.00010609 [kJ/mol]
      Exch-Ind20,r                  0.00000000 [mEh]       0.00000000 [kcal/mol]       0.00000000 [kJ/mol]
      delta HF,r (2)                0.00000323 [mEh]       0.00000203 [kcal/mol]       0.00000849 [kJ/mol]

    Dispersion                     -0.00032076 [mEh]      -0.00020128 [kcal/mol]      -0.00084215 [kJ/mol]
      Disp20                       -0.00032076 [mEh]      -0.00020128 [kcal/mol]      -0.00084215 [kJ/mol]
      Exch-Disp20                   0.00000000 [mEh]       0.00000000 [kcal/mol]       0.00000000 [kJ/mol]
      Disp20 (SS)                  -0.00016038 [mEh]      -0.00010064 [kcal/mol]      -0.00042107 [kJ/mol]
      Disp20 (OS)                  -0.00016038 [mEh]      -0.00010064 [kcal/mol]      -0.00042107 [kJ/mol]
      Exch-Disp20 (SS)              0.00000000 [mEh]       0.00000000 [kcal/mol]       0.00000000 [kJ/mol]
      Exch-Disp20 (OS)              0.00000000 [mEh]       0.00000000 [kcal/mol]       0.00000000 [kJ/mol]

  Total HF                         -0.02652424 [mEh]      -0.01664421 [kcal/mol]      -0.06963939 [kJ/mol]
  Total SAPT0                      -0.02684500 [mEh]      -0.01684549 [kcal/mol]      -0.07048154 [kJ/mol]

  Special recipe for scaled SAPT0 (see Manual):
    Electrostatics sSAPT0          -0.02648707 [mEh]      -0.01662089 [kcal/mol]      -0.06954179 [kJ/mol]
    Exchange sSAPT0                 0.00000000 [mEh]       0.00000000 [kcal/mol]       0.00000000 [kJ/mol]
    Induction sSAPT0               -0.00003718 [mEh]      -0.00002333 [kcal/mol]      -0.00009761 [kJ/mol]
    Dispersion sSAPT0              -0.00032076 [mEh]      -0.00020128 [kcal/mol]      -0.00084215 [kJ/mol]
  Total sSAPT0                     -0.02684500 [mEh]      -0.01684549 [kcal/mol]      -0.07048154 [kJ/mol]
  --------------------------------------------------------------------------------------------------------

*** Psi4 exiting successfully. Buy a developer a beer!
