                               Psi4 1.4rc3

  ==> Input File <==

--------------------------------------------------------------------------
# PSI4 file produced by CrystaLattE

# Generated from:               imidazole.xyz
# Psithon input for N-mer:      2mer-0+54
# Number of atoms per monomer:  [9, 9]
# Number of replicas:           1
# COM priority:                 1.426989954959e-04
# Minimum COM separations:      10.127
# Separation priority:          2.445730864979e-04
# Minimum monomer separations:  8.462
# Cutoff priority:              1.529483815600e-05
# Nuclear repulsion energy:     395.4391299818907

memory 7 GB

molecule Dimer_0_54 {
  N           -4.29309621      -3.06837431       5.30516231
  N           -2.15847371      -2.92627296       1.72037448
  H           -0.02545587      -6.35903575       2.22046452
  H           -2.68566968      -6.53260241       6.61445954
  H           -4.74388423      -0.00609006       2.75615968
  H           -1.41045540      -2.24723147       0.00000000
  C           -1.43737991      -5.07504848       2.94065891
  C           -2.76900782      -5.14609916       5.13522880
  C           -3.85955036      -1.77728198       3.21093411
--
  N           14.96239035      -6.17836402      11.49074204
  N           12.82776785      -6.32046538      15.07552988
  H           10.69475001      -2.88770259      14.57543984
  H           13.35496382      -2.71413593      10.18144482
  H           15.41317837      -9.24064828      14.03974468
  H           12.07974955      -6.99950687      16.79590435
  C           12.10667405      -4.17168985      13.85524544
  C           13.43830196      -4.10063917      11.66067555
  C           14.52884450      -7.46945636      13.58497024
units = au
no_com
no_reorient
}

set {
  e_convergence 10
  d_convergence 10
  scf_type df
  mp2_type df
  cc_type df
  freeze_core true
}

energy('sapt0/aug-cc-pvdz')

--------------------------------------------------------------------------

  //              Dimer HF             //
    Molecular point group: c1
  Charge       = 0
  Multiplicity = 1
  Basis Set: AUG-CC-PVDZ
    Blend: AUG-CC-PVDZ
  Basis Set: (AUG-CC-PVDZ AUX)
    Blend: AUG-CC-PVDZ-JKFIT
  @DF-RHF Final Energy:  -449.68764064218686
    Total Energy =                       -449.6876406421869206
  //            Monomer A HF           //
    Molecular point group: c1
  Multiplicity = 1
  Basis Set: AUG-CC-PVDZ
    Blend: AUG-CC-PVDZ
  Basis Set: (AUG-CC-PVDZ AUX)
    Blend: AUG-CC-PVDZ-JKFIT
  @DF-RHF Final Energy:  -224.84369994629964
    Total Energy =                       -224.8436999462996368
  //            Monomer B HF           //
    Molecular point group: c1

    Geometry (in Bohr), charge = 0, multiplicity = 1:

       Center              X                  Y                   Z               Mass
    ------------   -----------------  -----------------  -----------------  -----------------
      Gh(N)          -4.293096210000    -3.068374310000     5.305162310000    14.003074004430
      Gh(N)          -2.158473710000    -2.926272960000     1.720374480000    14.003074004430
      Gh(H)          -0.025455870000    -6.359035750000     2.220464520000     1.007825032230
      Gh(H)          -2.685669680000    -6.532602410000     6.614459540000     1.007825032230
      Gh(H)          -4.743884230000    -0.006090060000     2.756159680000     1.007825032230
      Gh(H)          -1.410455400000    -2.247231470000     0.000000000000     1.007825032230
      Gh(C)          -1.437379910000    -5.075048480000     2.940658910000    12.000000000000
      Gh(C)          -2.769007820000    -5.146099160000     5.135228800000    12.000000000000
      Gh(C)          -3.859550360000    -1.777281980000     3.210934110000    12.000000000000
         N           14.962390350000    -6.178364020000    11.490742040000    14.003074004430
         N           12.827767850000    -6.320465380000    15.075529880000    14.003074004430
         H           10.694750010000    -2.887702590000    14.575439840000     1.007825032230
         H           13.354963820000    -2.714135930000    10.181444820000     1.007825032230
         H           15.413178370000    -9.240648280000    14.039744680000     1.007825032230
         H           12.079749550000    -6.999506870000    16.795904350000     1.007825032230
         C           12.106674050000    -4.171689850000    13.855245440000    12.000000000000
         C           13.438301960000    -4.100639170000    11.660675550000    12.000000000000
         C           14.528844500000    -7.469456360000    13.584970240000    12.000000000000

  Charge       = 0
  Multiplicity = 1
  Basis Set: AUG-CC-PVDZ
    Blend: AUG-CC-PVDZ
  Basis Set: (AUG-CC-PVDZ AUX)
    Blend: AUG-CC-PVDZ-JKFIT

    Orbital Energies [Eh]
    ---------------------

    Doubly Occupied:

       1A    -15.637071     2A    -15.551216     3A    -11.300917
       4A    -11.263160     5A    -11.245653     6A     -1.352867
       7A     -1.169099     8A     -1.012099     9A     -0.824390
      10A     -0.803732    11A     -0.760667    12A     -0.610096
      13A     -0.603958    14A     -0.601923    15A     -0.570943
      16A     -0.435483    17A     -0.400465    18A     -0.320686

  @DF-RHF Final Energy:  -224.84369994742673

   => Energetics <=

    Nuclear Repulsion Energy =            164.0866957862881748
    One-Electron Energy =                -628.9319384570146667
    Two-Electron Energy =                 240.0015427232997922
    Total Energy =                       -224.8436999474267282

  Dipole Moment: [D]
     X:    -2.0432      Y:    -0.4150      Z:     3.3866     Total:     3.9769

    SAPT Results
  --------------------------------------------------------------------------------------------------------
    Electrostatics                 -0.23844551 [mEh]      -0.14962682 [kcal/mol]      -0.62603861 [kJ/mol]
      Elst10,r                     -0.23844551 [mEh]      -0.14962682 [kcal/mol]      -0.62603861 [kJ/mol]

    Exchange                       -0.00000125 [mEh]      -0.00000078 [kcal/mol]      -0.00000327 [kJ/mol]
      Exch10                       -0.00000125 [mEh]      -0.00000078 [kcal/mol]      -0.00000327 [kJ/mol]
      Exch10(S^2)                  -0.00000125 [mEh]      -0.00000078 [kcal/mol]      -0.00000327 [kJ/mol]

    Induction                      -0.00230170 [mEh]      -0.00144434 [kcal/mol]      -0.00604312 [kJ/mol]
      Ind20,r                      -0.00233004 [mEh]      -0.00146212 [kcal/mol]      -0.00611753 [kJ/mol]
      Exch-Ind20,r                  0.00000478 [mEh]       0.00000300 [kcal/mol]       0.00001256 [kJ/mol]
      delta HF,r (2)                0.00002356 [mEh]       0.00001478 [kcal/mol]       0.00006185 [kJ/mol]

    Dispersion                     -0.02574261 [mEh]      -0.01615373 [kcal/mol]      -0.06758722 [kJ/mol]
      Disp20                       -0.02574378 [mEh]      -0.01615447 [kcal/mol]      -0.06759030 [kJ/mol]
      Exch-Disp20                   0.00000117 [mEh]       0.00000074 [kcal/mol]       0.00000308 [kJ/mol]
      Disp20 (SS)                  -0.01287189 [mEh]      -0.00807723 [kcal/mol]      -0.03379515 [kJ/mol]
      Disp20 (OS)                  -0.01287189 [mEh]      -0.00807723 [kcal/mol]      -0.03379515 [kJ/mol]
      Exch-Disp20 (SS)              0.00000098 [mEh]       0.00000062 [kcal/mol]       0.00000258 [kJ/mol]
      Exch-Disp20 (OS)              0.00000019 [mEh]       0.00000012 [kcal/mol]       0.00000050 [kJ/mol]

  Total HF                         -0.24074846 [mEh]      -0.15107194 [kcal/mol]      -0.63208500 [kJ/mol]
  Total SAPT0                      -0.26649107 [mEh]      -0.16722567 [kcal/mol]      -0.69967222 [kJ/mol]

  Special recipe for scaled SAPT0 (see Manual):
    Electrostatics sSAPT0          -0.23844551 [mEh]      -0.14962682 [kcal/mol]      -0.62603861 [kJ/mol]
    Exchange sSAPT0                -0.00000125 [mEh]      -0.00000078 [kcal/mol]      -0.00000327 [kJ/mol]
    Induction sSAPT0               -0.00230170 [mEh]      -0.00144434 [kcal/mol]      -0.00604312 [kJ/mol]
    Dispersion sSAPT0              -0.02574261 [mEh]      -0.01615373 [kcal/mol]      -0.06758722 [kJ/mol]
  Total sSAPT0                     -0.26649107 [mEh]      -0.16722567 [kcal/mol]      -0.69967222 [kJ/mol]
  --------------------------------------------------------------------------------------------------------

*** Psi4 exiting successfully. Buy a developer a beer!
