                               Psi4 1.4rc3

  ==> Input File <==

--------------------------------------------------------------------------
# PSI4 file produced by CrystaLattE

# Generated from:               imidazole.xyz
# Psithon input for N-mer:      2mer-0+420
# Number of atoms per monomer:  [9, 9]
# Number of replicas:           2
# COM priority:                 1.171124882967e-05
# Minimum COM separations:      23.302
# Separation priority:          2.075991508962e-05
# Minimum monomer separations:  19.254
# Cutoff priority:              5.705592673507e-07
# Nuclear repulsion energy:     357.64844865395094

memory 7 GB

molecule Dimer_0_420 {
  N           -4.29309621      -3.06837431       5.30516231
  N           -2.15847371      -2.92627296       1.72037448
  H           -0.02545587      -6.35903575       2.22046452
  H           -2.68566968      -6.53260241       6.61445954
  H           -4.74388423      -0.00609006       2.75615968
  H           -1.41045540      -2.24723147       0.00000000
  C           -1.43737991      -5.07504848       2.94065891
  C           -2.76900782      -5.14609916       5.13522880
  C           -3.85955036      -1.77728198       3.21093411
--
  N           -9.65700575      37.53201355     -10.87898141
  N           -7.52238325      37.67411491     -14.46376924
  H           -5.38936541      34.24135211     -13.96367920
  H           -8.04957922      34.06778545      -9.56968418
  H          -10.10779377      40.59429780     -13.42798405
  H           -6.77436494      38.35315639     -16.18414372
  C           -6.80128945      35.52533938     -13.24348481
  C           -8.13291736      35.45428870     -11.04891492
  C           -9.22345990      38.82310588     -12.97320961
units = au
no_com
no_reorient
}

set {
  e_convergence 10
  d_convergence 10
  scf_type df
  mp2_type df
  cc_type df
  freeze_core true
}

energy('sapt0/aug-cc-pvdz')

--------------------------------------------------------------------------

  //              Dimer HF             //
    Molecular point group: c1
  Charge       = 0
  Multiplicity = 1
  Basis Set: AUG-CC-PVDZ
    Blend: AUG-CC-PVDZ
  Basis Set: (AUG-CC-PVDZ AUX)
    Blend: AUG-CC-PVDZ-JKFIT
  @DF-RHF Final Energy:  -449.68737402977695
    Total Energy =                       -449.6873740297769473
  //            Monomer A HF           //
    Molecular point group: c1
  Multiplicity = 1
  Basis Set: AUG-CC-PVDZ
    Blend: AUG-CC-PVDZ
  Basis Set: (AUG-CC-PVDZ AUX)
    Blend: AUG-CC-PVDZ-JKFIT
  @DF-RHF Final Energy:  -224.84369627767686
    Total Energy =                       -224.8436962776768553
  //            Monomer B HF           //
    Molecular point group: c1

    Geometry (in Bohr), charge = 0, multiplicity = 1:

       Center              X                  Y                   Z               Mass
    ------------   -----------------  -----------------  -----------------  -----------------
      Gh(N)          -4.293096210000    -3.068374310000     5.305162310000    14.003074004430
      Gh(N)          -2.158473710000    -2.926272960000     1.720374480000    14.003074004430
      Gh(H)          -0.025455870000    -6.359035750000     2.220464520000     1.007825032230
      Gh(H)          -2.685669680000    -6.532602410000     6.614459540000     1.007825032230
      Gh(H)          -4.743884230000    -0.006090060000     2.756159680000     1.007825032230
      Gh(H)          -1.410455400000    -2.247231470000     0.000000000000     1.007825032230
      Gh(C)          -1.437379910000    -5.075048480000     2.940658910000    12.000000000000
      Gh(C)          -2.769007820000    -5.146099160000     5.135228800000    12.000000000000
      Gh(C)          -3.859550360000    -1.777281980000     3.210934110000    12.000000000000
         N           -9.657005750000    37.532013550000   -10.878981410000    14.003074004430
         N           -7.522383250000    37.674114910000   -14.463769240000    14.003074004430
         H           -5.389365410000    34.241352110000   -13.963679200000     1.007825032230
         H           -8.049579220000    34.067785450000    -9.569684180000     1.007825032230
         H          -10.107793770000    40.594297800000   -13.427984050000     1.007825032230
         H           -6.774364940000    38.353156390000   -16.184143720000     1.007825032230
         C           -6.801289450000    35.525339380000   -13.243484810000    12.000000000000
         C           -8.132917360000    35.454288700000   -11.048914920000    12.000000000000
         C           -9.223459900000    38.823105880000   -12.973209610000    12.000000000000

  Charge       = 0
  Multiplicity = 1
  Basis Set: AUG-CC-PVDZ
    Blend: AUG-CC-PVDZ
  Basis Set: (AUG-CC-PVDZ AUX)
    Blend: AUG-CC-PVDZ-JKFIT

    Orbital Energies [Eh]
    ---------------------

    Doubly Occupied:

       1A    -15.637071     2A    -15.551216     3A    -11.300916
       4A    -11.263160     5A    -11.245653     6A     -1.352867
       7A     -1.169098     8A     -1.012098     9A     -0.824390
      10A     -0.803731    11A     -0.760666    12A     -0.610096
      13A     -0.603958    14A     -0.601922    15A     -0.570942
      16A     -0.435483    17A     -0.400464    18A     -0.320685

  @DF-RHF Final Energy:  -224.84369627853624

   => Energetics <=

    Nuclear Repulsion Energy =            164.0866959554951166
    One-Electron Energy =                -628.9319562211488801
    Two-Electron Energy =                 240.0015639871175495
    Total Energy =                       -224.8436962785362425

  Dipole Moment: [D]
     X:     2.0431      Y:     0.4150      Z:    -3.3867     Total:     3.9769

    SAPT Results
  --------------------------------------------------------------------------------------------------------
    Electrostatics                  0.01855382 [mEh]       0.01164270 [kcal/mol]       0.04871306 [kJ/mol]
      Elst10,r                      0.01855382 [mEh]       0.01164270 [kcal/mol]       0.04871306 [kJ/mol]

    Exchange                        0.00000000 [mEh]       0.00000000 [kcal/mol]       0.00000000 [kJ/mol]
      Exch10                        0.00000000 [mEh]       0.00000000 [kcal/mol]       0.00000000 [kJ/mol]
      Exch10(S^2)                   0.00000000 [mEh]       0.00000000 [kcal/mol]       0.00000000 [kJ/mol]

    Induction                      -0.00002739 [mEh]      -0.00001719 [kcal/mol]      -0.00007190 [kJ/mol]
      Ind20,r                      -0.00002577 [mEh]      -0.00001617 [kcal/mol]      -0.00006766 [kJ/mol]
      Exch-Ind20,r                  0.00000000 [mEh]       0.00000000 [kcal/mol]       0.00000000 [kJ/mol]
      delta HF,r (2)               -0.00000162 [mEh]      -0.00000101 [kcal/mol]      -0.00000424 [kJ/mol]

    Dispersion                     -0.00019456 [mEh]      -0.00012209 [kcal/mol]      -0.00051083 [kJ/mol]
      Disp20                       -0.00019456 [mEh]      -0.00012209 [kcal/mol]      -0.00051083 [kJ/mol]
      Exch-Disp20                   0.00000000 [mEh]       0.00000000 [kcal/mol]       0.00000000 [kJ/mol]
      Disp20 (SS)                  -0.00009728 [mEh]      -0.00006105 [kcal/mol]      -0.00025541 [kJ/mol]
      Disp20 (OS)                  -0.00009728 [mEh]      -0.00006105 [kcal/mol]      -0.00025541 [kJ/mol]
      Exch-Disp20 (SS)              0.00000000 [mEh]       0.00000000 [kcal/mol]       0.00000000 [kJ/mol]
      Exch-Disp20 (OS)              0.00000000 [mEh]       0.00000000 [kcal/mol]       0.00000000 [kJ/mol]

  Total HF                          0.01852644 [mEh]       0.01162551 [kcal/mol]       0.04864115 [kJ/mol]
  Total SAPT0                       0.01833187 [mEh]       0.01150342 [kcal/mol]       0.04813032 [kJ/mol]

  Special recipe for scaled SAPT0 (see Manual):
    Electrostatics sSAPT0           0.01855382 [mEh]       0.01164270 [kcal/mol]       0.04871306 [kJ/mol]
    Exchange sSAPT0                 0.00000000 [mEh]       0.00000000 [kcal/mol]       0.00000000 [kJ/mol]
    Induction sSAPT0               -0.00002739 [mEh]      -0.00001719 [kcal/mol]      -0.00007190 [kJ/mol]
    Dispersion sSAPT0              -0.00019456 [mEh]      -0.00012209 [kcal/mol]      -0.00051083 [kJ/mol]
  Total sSAPT0                      0.01833187 [mEh]       0.01150342 [kcal/mol]       0.04813032 [kJ/mol]
  --------------------------------------------------------------------------------------------------------

*** Psi4 exiting successfully. Buy a developer a beer!
