                               Psi4 1.4rc3

  ==> Input File <==

--------------------------------------------------------------------------
# PSI4 file produced by CrystaLattE

# Generated from:               imidazole.xyz
# Psithon input for N-mer:      2mer-0+388
# Number of atoms per monomer:  [9, 9]
# Number of replicas:           1
# COM priority:                 2.343224830110e-05
# Minimum COM separations:      18.493
# Separation priority:          5.265474054747e-05
# Minimum monomer separations:  14.119
# Cutoff priority:              1.973558342347e-06
# Nuclear repulsion energy:     365.32535734066903

memory 7 GB

molecule Dimer_0_388 {
  N           -4.29309621      -3.06837431       5.30516231
  N           -2.15847371      -2.92627296       1.72037448
  H           -0.02545587      -6.35903575       2.22046452
  H           -2.68566968      -6.53260241       6.61445954
  H           -4.74388423      -0.00609006       2.75615968
  H           -1.41045540      -2.24723147       0.00000000
  C           -1.43737991      -5.07504848       2.94065891
  C           -2.76900782      -5.14609916       5.13522880
  C           -3.85955036      -1.77728198       3.21093411
--
  N            5.99801847     -26.47855795      27.67488576
  N            3.86339597     -26.62065931      31.25967360
  H            1.73037812     -23.18789652      30.75958356
  H            4.39059193     -23.01432986      26.36558854
  H            6.44880648     -29.54084221      30.22388840
  H            3.11537766     -27.29970080      32.98004808
  C            3.14230217     -24.47188378      30.03938916
  C            4.47393007     -24.40083310      27.84481927
  C            5.56447261     -27.76965029      29.76911396
units = au
no_com
no_reorient
}

set {
  e_convergence 10
  d_convergence 10
  scf_type df
  mp2_type df
  cc_type df
  freeze_core true
}

energy('sapt0/aug-cc-pvdz')

--------------------------------------------------------------------------

  //              Dimer HF             //
    Molecular point group: c1
  Charge       = 0
  Multiplicity = 1
  Basis Set: AUG-CC-PVDZ
    Blend: AUG-CC-PVDZ
  Basis Set: (AUG-CC-PVDZ AUX)
    Blend: AUG-CC-PVDZ-JKFIT
  @DF-RHF Final Energy:  -449.68740926965995
    Total Energy =                       -449.6874092696599519
  //            Monomer A HF           //
    Molecular point group: c1
  Multiplicity = 1
  Basis Set: AUG-CC-PVDZ
    Blend: AUG-CC-PVDZ
  Basis Set: (AUG-CC-PVDZ AUX)
    Blend: AUG-CC-PVDZ-JKFIT
  @DF-RHF Final Energy:  -224.84369627820644
    Total Energy =                       -224.8436962782064370
  //            Monomer B HF           //
    Molecular point group: c1

    Geometry (in Bohr), charge = 0, multiplicity = 1:

       Center              X                  Y                   Z               Mass
    ------------   -----------------  -----------------  -----------------  -----------------
      Gh(N)          -4.293096210000    -3.068374310000     5.305162310000    14.003074004430
      Gh(N)          -2.158473710000    -2.926272960000     1.720374480000    14.003074004430
      Gh(H)          -0.025455870000    -6.359035750000     2.220464520000     1.007825032230
      Gh(H)          -2.685669680000    -6.532602410000     6.614459540000     1.007825032230
      Gh(H)          -4.743884230000    -0.006090060000     2.756159680000     1.007825032230
      Gh(H)          -1.410455400000    -2.247231470000     0.000000000000     1.007825032230
      Gh(C)          -1.437379910000    -5.075048480000     2.940658910000    12.000000000000
      Gh(C)          -2.769007820000    -5.146099160000     5.135228800000    12.000000000000
      Gh(C)          -3.859550360000    -1.777281980000     3.210934110000    12.000000000000
         N            5.998018470000   -26.478557950000    27.674885760000    14.003074004430
         N            3.863395970000   -26.620659310000    31.259673600000    14.003074004430
         H            1.730378120000   -23.187896520000    30.759583560000     1.007825032230
         H            4.390591930000   -23.014329860000    26.365588540000     1.007825032230
         H            6.448806480000   -29.540842210000    30.223888400000     1.007825032230
         H            3.115377660000   -27.299700800000    32.980048080000     1.007825032230
         C            3.142302170000   -24.471883780000    30.039389160000    12.000000000000
         C            4.473930070000   -24.400833100000    27.844819270000    12.000000000000
         C            5.564472610000   -27.769650290000    29.769113960000    12.000000000000

  Charge       = 0
  Multiplicity = 1
  Basis Set: AUG-CC-PVDZ
    Blend: AUG-CC-PVDZ
  Basis Set: (AUG-CC-PVDZ AUX)
    Blend: AUG-CC-PVDZ-JKFIT

    Orbital Energies [Eh]
    ---------------------

    Doubly Occupied:

       1A    -15.637071     2A    -15.551216     3A    -11.300916
       4A    -11.263160     5A    -11.245653     6A     -1.352867
       7A     -1.169098     8A     -1.012098     9A     -0.824390
      10A     -0.803731    11A     -0.760666    12A     -0.610096
      13A     -0.603958    14A     -0.601922    15A     -0.570942
      16A     -0.435483    17A     -0.400464    18A     -0.320685

  @DF-RHF Final Energy:  -224.84369627843625

   => Energetics <=

    Nuclear Repulsion Energy =            164.0866957842937950
    One-Electron Energy =                -628.9319558907494638
    Two-Electron Energy =                 240.0015638280194139
    Total Energy =                       -224.8436962784362549

  Dipole Moment: [D]
     X:    -2.0431      Y:    -0.4150      Z:     3.3867     Total:     3.9769

    SAPT Results
  --------------------------------------------------------------------------------------------------------
    Electrostatics                 -0.01663617 [mEh]      -0.01043935 [kcal/mol]      -0.04367825 [kJ/mol]
      Elst10,r                     -0.01663617 [mEh]      -0.01043935 [kcal/mol]      -0.04367825 [kJ/mol]

    Exchange                        0.00000000 [mEh]       0.00000000 [kcal/mol]       0.00000000 [kJ/mol]
      Exch10                        0.00000000 [mEh]       0.00000000 [kcal/mol]       0.00000000 [kJ/mol]
      Exch10(S^2)                   0.00000000 [mEh]       0.00000000 [kcal/mol]       0.00000000 [kJ/mol]

    Induction                      -0.00007685 [mEh]      -0.00004823 [kcal/mol]      -0.00020177 [kJ/mol]
      Ind20,r                      -0.00009634 [mEh]      -0.00006045 [kcal/mol]      -0.00025293 [kJ/mol]
      Exch-Ind20,r                  0.00000000 [mEh]       0.00000000 [kcal/mol]       0.00000000 [kJ/mol]
      delta HF,r (2)                0.00001949 [mEh]       0.00001223 [kcal/mol]       0.00005116 [kJ/mol]

    Dispersion                     -0.00084237 [mEh]      -0.00052859 [kcal/mol]      -0.00221163 [kJ/mol]
      Disp20                       -0.00084237 [mEh]      -0.00052859 [kcal/mol]      -0.00221163 [kJ/mol]
      Exch-Disp20                   0.00000000 [mEh]       0.00000000 [kcal/mol]       0.00000000 [kJ/mol]
      Disp20 (SS)                  -0.00042118 [mEh]      -0.00026430 [kcal/mol]      -0.00110581 [kJ/mol]
      Disp20 (OS)                  -0.00042118 [mEh]      -0.00026430 [kcal/mol]      -0.00110581 [kJ/mol]
      Exch-Disp20 (SS)              0.00000000 [mEh]       0.00000000 [kcal/mol]       0.00000000 [kJ/mol]
      Exch-Disp20 (OS)              0.00000000 [mEh]       0.00000000 [kcal/mol]       0.00000000 [kJ/mol]

  Total HF                         -0.01671302 [mEh]      -0.01048758 [kcal/mol]      -0.04388002 [kJ/mol]
  Total SAPT0                      -0.01755538 [mEh]      -0.01101617 [kcal/mol]      -0.04609165 [kJ/mol]

  Special recipe for scaled SAPT0 (see Manual):
    Electrostatics sSAPT0          -0.01663617 [mEh]      -0.01043935 [kcal/mol]      -0.04367825 [kJ/mol]
    Exchange sSAPT0                 0.00000000 [mEh]       0.00000000 [kcal/mol]       0.00000000 [kJ/mol]
    Induction sSAPT0               -0.00007685 [mEh]      -0.00004823 [kcal/mol]      -0.00020177 [kJ/mol]
    Dispersion sSAPT0              -0.00084237 [mEh]      -0.00052859 [kcal/mol]      -0.00221163 [kJ/mol]
  Total sSAPT0                     -0.01755538 [mEh]      -0.01101617 [kcal/mol]      -0.04609165 [kJ/mol]
  --------------------------------------------------------------------------------------------------------

*** Psi4 exiting successfully. Buy a developer a beer!
