                               Psi4 1.4rc3

  ==> Input File <==

--------------------------------------------------------------------------
# PSI4 file produced by CrystaLattE

# Generated from:               imidazole.xyz
# Psithon input for N-mer:      2mer-0+421
# Number of atoms per monomer:  [9, 9]
# Number of replicas:           1
# COM priority:                 1.466551861825e-05
# Minimum COM separations:      21.619
# Separation priority:          2.297597713727e-05
# Minimum monomer separations:  18.614
# Cutoff priority:              6.531786596239e-07
# Nuclear repulsion energy:     359.95679662217026

memory 7 GB

molecule Dimer_0_421 {
  N           -4.29309621      -3.06837431       5.30516231
  N           -2.15847371      -2.92627296       1.72037448
  H           -0.02545587      -6.35903575       2.22046452
  H           -2.68566968      -6.53260241       6.61445954
  H           -4.74388423      -0.00609006       2.75615968
  H           -1.41045540      -2.24723147       0.00000000
  C           -1.43737991      -5.07504848       2.94065891
  C           -2.76900782      -5.14609916       5.13522880
  C           -3.85955036      -1.77728198       3.21093411
--
  N           -1.12933827     -16.32846099     -37.06168912
  N           -3.26396077     -16.47056235     -33.47690129
  H           -5.39697861     -13.03779955     -33.97699133
  H           -2.73676480     -12.86423289     -38.37098635
  H           -0.67855025     -19.39074524     -34.51268649
  H           -4.01197907     -17.14960383     -31.75652681
  C           -3.98505457     -14.32178682     -34.69718572
  C           -2.65342666     -14.25073614     -36.89175561
  C           -1.56288412     -17.61955332     -34.96746092
units = au
no_com
no_reorient
}

set {
  e_convergence 10
  d_convergence 10
  scf_type df
  mp2_type df
  cc_type df
  freeze_core true
}

energy('sapt0/aug-cc-pvdz')

--------------------------------------------------------------------------

  //              Dimer HF             //
    Molecular point group: c1
  Charge       = 0
  Multiplicity = 1
  Basis Set: AUG-CC-PVDZ
    Blend: AUG-CC-PVDZ
  Basis Set: (AUG-CC-PVDZ AUX)
    Blend: AUG-CC-PVDZ-JKFIT
  @DF-RHF Final Energy:  -449.68737227959690
    Total Energy =                       -449.6873722795969002
  //            Monomer A HF           //
    Molecular point group: c1
  Multiplicity = 1
  Basis Set: AUG-CC-PVDZ
    Blend: AUG-CC-PVDZ
  Basis Set: (AUG-CC-PVDZ AUX)
    Blend: AUG-CC-PVDZ-JKFIT
  @DF-RHF Final Energy:  -224.84369627766748
    Total Energy =                       -224.8436962776674761
  //            Monomer B HF           //
    Molecular point group: c1

    Geometry (in Bohr), charge = 0, multiplicity = 1:

       Center              X                  Y                   Z               Mass
    ------------   -----------------  -----------------  -----------------  -----------------
      Gh(N)          -4.293096210000    -3.068374310000     5.305162310000    14.003074004430
      Gh(N)          -2.158473710000    -2.926272960000     1.720374480000    14.003074004430
      Gh(H)          -0.025455870000    -6.359035750000     2.220464520000     1.007825032230
      Gh(H)          -2.685669680000    -6.532602410000     6.614459540000     1.007825032230
      Gh(H)          -4.743884230000    -0.006090060000     2.756159680000     1.007825032230
      Gh(H)          -1.410455400000    -2.247231470000     0.000000000000     1.007825032230
      Gh(C)          -1.437379910000    -5.075048480000     2.940658910000    12.000000000000
      Gh(C)          -2.769007820000    -5.146099160000     5.135228800000    12.000000000000
      Gh(C)          -3.859550360000    -1.777281980000     3.210934110000    12.000000000000
         N           -1.129338270000   -16.328460990000   -37.061689120000    14.003074004430
         N           -3.263960770000   -16.470562350000   -33.476901290000    14.003074004430
         H           -5.396978610000   -13.037799550000   -33.976991330000     1.007825032230
         H           -2.736764800000   -12.864232890000   -38.370986350000     1.007825032230
         H           -0.678550250000   -19.390745240000   -34.512686490000     1.007825032230
         H           -4.011979070000   -17.149603830000   -31.756526810000     1.007825032230
         C           -3.985054570000   -14.321786820000   -34.697185720000    12.000000000000
         C           -2.653426660000   -14.250736140000   -36.891755610000    12.000000000000
         C           -1.562884120000   -17.619553320000   -34.967460920000    12.000000000000

  Charge       = 0
  Multiplicity = 1
  Basis Set: AUG-CC-PVDZ
    Blend: AUG-CC-PVDZ
  Basis Set: (AUG-CC-PVDZ AUX)
    Blend: AUG-CC-PVDZ-JKFIT

    Orbital Energies [Eh]
    ---------------------

    Doubly Occupied:

       1A    -15.637071     2A    -15.551216     3A    -11.300916
       4A    -11.263160     5A    -11.245653     6A     -1.352867
       7A     -1.169098     8A     -1.012098     9A     -0.824390
      10A     -0.803731    11A     -0.760666    12A     -0.610096
      13A     -0.603958    14A     -0.601922    15A     -0.570942
      16A     -0.435483    17A     -0.400464    18A     -0.320685

  @DF-RHF Final Energy:  -224.84369627796625

   => Energetics <=

    Nuclear Repulsion Energy =            164.0866959712148230
    One-Electron Energy =                -628.9319562511607273
    Two-Electron Energy =                 240.0015640019796876
    Total Energy =                       -224.8436962779662451

  Dipole Moment: [D]
     X:    -2.0431      Y:    -0.4150      Z:     3.3867     Total:     3.9769

    SAPT Results
  --------------------------------------------------------------------------------------------------------
    Electrostatics                  0.02033782 [mEh]       0.01276217 [kcal/mol]       0.05339693 [kJ/mol]
      Elst10,r                      0.02033782 [mEh]       0.01276217 [kcal/mol]       0.05339693 [kJ/mol]

    Exchange                        0.00000000 [mEh]       0.00000000 [kcal/mol]       0.00000000 [kJ/mol]
      Exch10                        0.00000000 [mEh]       0.00000000 [kcal/mol]       0.00000000 [kJ/mol]
      Exch10(S^2)                   0.00000000 [mEh]       0.00000000 [kcal/mol]       0.00000000 [kJ/mol]

    Induction                      -0.00006178 [mEh]      -0.00003877 [kcal/mol]      -0.00016220 [kJ/mol]
      Ind20,r                      -0.00005608 [mEh]      -0.00003519 [kcal/mol]      -0.00014723 [kJ/mol]
      Exch-Ind20,r                  0.00000000 [mEh]       0.00000000 [kcal/mol]       0.00000000 [kJ/mol]
      delta HF,r (2)               -0.00000570 [mEh]      -0.00000358 [kcal/mol]      -0.00001497 [kJ/mol]

    Dispersion                     -0.00026941 [mEh]      -0.00016905 [kcal/mol]      -0.00070732 [kJ/mol]
      Disp20                       -0.00026941 [mEh]      -0.00016905 [kcal/mol]      -0.00070732 [kJ/mol]
      Exch-Disp20                   0.00000000 [mEh]       0.00000000 [kcal/mol]       0.00000000 [kJ/mol]
      Disp20 (SS)                  -0.00013470 [mEh]      -0.00008453 [kcal/mol]      -0.00035366 [kJ/mol]
      Disp20 (OS)                  -0.00013470 [mEh]      -0.00008453 [kcal/mol]      -0.00035366 [kJ/mol]
      Exch-Disp20 (SS)              0.00000000 [mEh]       0.00000000 [kcal/mol]       0.00000000 [kJ/mol]
      Exch-Disp20 (OS)              0.00000000 [mEh]       0.00000000 [kcal/mol]       0.00000000 [kJ/mol]

  Total HF                          0.02027604 [mEh]       0.01272341 [kcal/mol]       0.05323473 [kJ/mol]
  Total SAPT0                       0.02000663 [mEh]       0.01255435 [kcal/mol]       0.05252740 [kJ/mol]

  Special recipe for scaled SAPT0 (see Manual):
    Electrostatics sSAPT0           0.02033782 [mEh]       0.01276217 [kcal/mol]       0.05339693 [kJ/mol]
    Exchange sSAPT0                 0.00000000 [mEh]       0.00000000 [kcal/mol]       0.00000000 [kJ/mol]
    Induction sSAPT0               -0.00006178 [mEh]      -0.00003877 [kcal/mol]      -0.00016220 [kJ/mol]
    Dispersion sSAPT0              -0.00026941 [mEh]      -0.00016905 [kcal/mol]      -0.00070732 [kJ/mol]
  Total sSAPT0                      0.02000663 [mEh]       0.01255435 [kcal/mol]       0.05252740 [kJ/mol]
  --------------------------------------------------------------------------------------------------------

*** Psi4 exiting successfully. Buy a developer a beer!
