                               Psi4 1.4rc3

  ==> Input File <==

--------------------------------------------------------------------------
# PSI4 file produced by CrystaLattE

# Generated from:               imidazole.xyz
# Psithon input for N-mer:      2mer-0+404
# Number of atoms per monomer:  [9, 9]
# Number of replicas:           2
# COM priority:                 1.331267844365e-05
# Minimum COM separations:      22.328
# Separation priority:          1.884463212223e-05
# Minimum monomer separations:  19.886
# Cutoff priority:              5.014760753314e-07
# Nuclear repulsion energy:     358.8835278916472

memory 7 GB

molecule Dimer_0_404 {
  N           -4.29309621      -3.06837431       5.30516231
  N           -2.15847371      -2.92627296       1.72037448
  H           -0.02545587      -6.35903575       2.22046452
  H           -2.68566968      -6.53260241       6.61445954
  H           -4.74388423      -0.00609006       2.75615968
  H           -1.41045540      -2.24723147       0.00000000
  C           -1.43737991      -5.07504848       2.94065891
  C           -2.76900782      -5.14609916       5.13522880
  C           -3.85955036      -1.77728198       3.21093411
--
  N           33.32783853       7.08172265     -10.87898141
  N           35.46246103       7.22382401     -14.46376924
  H           37.59547888       3.79106122     -13.96367920
  H           34.93526506       3.61749456      -9.56968418
  H           32.87705052      10.14400691     -13.42798405
  H           36.21047934       7.90286550     -16.18414372
  C           36.18355483       5.07504848     -13.24348481
  C           34.85192692       5.00399780     -11.04891492
  C           33.76138439       8.37281499     -12.97320961
units = au
no_com
no_reorient
}

set {
  e_convergence 10
  d_convergence 10
  scf_type df
  mp2_type df
  cc_type df
  freeze_core true
}

energy('sapt0/aug-cc-pvdz')

--------------------------------------------------------------------------

  //              Dimer HF             //
    Molecular point group: c1
  Charge       = 0
  Multiplicity = 1
  Basis Set: AUG-CC-PVDZ
    Blend: AUG-CC-PVDZ
  Basis Set: (AUG-CC-PVDZ AUX)
    Blend: AUG-CC-PVDZ-JKFIT
  @DF-RHF Final Energy:  -449.68742353321920
    Total Energy =                       -449.6874235332192029
  //            Monomer A HF           //
    Molecular point group: c1
  Multiplicity = 1
  Basis Set: AUG-CC-PVDZ
    Blend: AUG-CC-PVDZ
  Basis Set: (AUG-CC-PVDZ AUX)
    Blend: AUG-CC-PVDZ-JKFIT
  @DF-RHF Final Energy:  -224.84369627726451
    Total Energy =                       -224.8436962772645131
  //            Monomer B HF           //
    Molecular point group: c1

    Geometry (in Bohr), charge = 0, multiplicity = 1:

       Center              X                  Y                   Z               Mass
    ------------   -----------------  -----------------  -----------------  -----------------
      Gh(N)          -4.293096210000    -3.068374310000     5.305162310000    14.003074004430
      Gh(N)          -2.158473710000    -2.926272960000     1.720374480000    14.003074004430
      Gh(H)          -0.025455870000    -6.359035750000     2.220464520000     1.007825032230
      Gh(H)          -2.685669680000    -6.532602410000     6.614459540000     1.007825032230
      Gh(H)          -4.743884230000    -0.006090060000     2.756159680000     1.007825032230
      Gh(H)          -1.410455400000    -2.247231470000     0.000000000000     1.007825032230
      Gh(C)          -1.437379910000    -5.075048480000     2.940658910000    12.000000000000
      Gh(C)          -2.769007820000    -5.146099160000     5.135228800000    12.000000000000
      Gh(C)          -3.859550360000    -1.777281980000     3.210934110000    12.000000000000
         N           33.327838530000     7.081722650000   -10.878981410000    14.003074004430
         N           35.462461030000     7.223824010000   -14.463769240000    14.003074004430
         H           37.595478880000     3.791061220000   -13.963679200000     1.007825032230
         H           34.935265060000     3.617494560000    -9.569684180000     1.007825032230
         H           32.877050520000    10.144006910000   -13.427984050000     1.007825032230
         H           36.210479340000     7.902865500000   -16.184143720000     1.007825032230
         C           36.183554830000     5.075048480000   -13.243484810000    12.000000000000
         C           34.851926920000     5.003997800000   -11.048914920000    12.000000000000
         C           33.761384390000     8.372814990000   -12.973209610000    12.000000000000

  Charge       = 0
  Multiplicity = 1
  Basis Set: AUG-CC-PVDZ
    Blend: AUG-CC-PVDZ
  Basis Set: (AUG-CC-PVDZ AUX)
    Blend: AUG-CC-PVDZ-JKFIT

    Orbital Energies [Eh]
    ---------------------

    Doubly Occupied:

       1A    -15.637071     2A    -15.551216     3A    -11.300916
       4A    -11.263160     5A    -11.245653     6A     -1.352867
       7A     -1.169098     8A     -1.012098     9A     -0.824390
      10A     -0.803731    11A     -0.760666    12A     -0.610096
      13A     -0.603958    14A     -0.601922    15A     -0.570942
      16A     -0.435483    17A     -0.400464    18A     -0.320685

  @DF-RHF Final Energy:  -224.84369627762280

   => Energetics <=

    Nuclear Repulsion Energy =            164.0866959094788911
    One-Electron Energy =                -628.9319561294032610
    Two-Electron Energy =                 240.0015639423016012
    Total Energy =                       -224.8436962776227972

  Dipole Moment: [D]
     X:     2.0431      Y:     0.4150      Z:    -3.3867     Total:     3.9769

    SAPT Results
  --------------------------------------------------------------------------------------------------------
    Electrostatics                 -0.03092787 [mEh]      -0.01940753 [kcal/mol]      -0.08120110 [kJ/mol]
      Elst10,r                     -0.03092787 [mEh]      -0.01940753 [kcal/mol]      -0.08120110 [kJ/mol]

    Exchange                        0.00000000 [mEh]       0.00000000 [kcal/mol]       0.00000000 [kJ/mol]
      Exch10                        0.00000000 [mEh]       0.00000000 [kcal/mol]       0.00000000 [kJ/mol]
      Exch10(S^2)                   0.00000000 [mEh]       0.00000000 [kcal/mol]       0.00000000 [kJ/mol]

    Induction                      -0.00005047 [mEh]      -0.00003167 [kcal/mol]      -0.00013250 [kJ/mol]
      Ind20,r                      -0.00005236 [mEh]      -0.00003286 [kcal/mol]      -0.00013747 [kJ/mol]
      Exch-Ind20,r                  0.00000000 [mEh]       0.00000000 [kcal/mol]       0.00000000 [kJ/mol]
      delta HF,r (2)                0.00000189 [mEh]       0.00000119 [kcal/mol]       0.00000497 [kJ/mol]

    Dispersion                     -0.00021892 [mEh]      -0.00013737 [kcal/mol]      -0.00057477 [kJ/mol]
      Disp20                       -0.00021892 [mEh]      -0.00013737 [kcal/mol]      -0.00057477 [kJ/mol]
      Exch-Disp20                   0.00000000 [mEh]       0.00000000 [kcal/mol]       0.00000000 [kJ/mol]
      Disp20 (SS)                  -0.00010946 [mEh]      -0.00006869 [kcal/mol]      -0.00028738 [kJ/mol]
      Disp20 (OS)                  -0.00010946 [mEh]      -0.00006869 [kcal/mol]      -0.00028738 [kJ/mol]
      Exch-Disp20 (SS)              0.00000000 [mEh]       0.00000000 [kcal/mol]       0.00000000 [kJ/mol]
      Exch-Disp20 (OS)              0.00000000 [mEh]       0.00000000 [kcal/mol]       0.00000000 [kJ/mol]

  Total HF                         -0.03097833 [mEh]      -0.01943920 [kcal/mol]      -0.08133360 [kJ/mol]
  Total SAPT0                      -0.03119725 [mEh]      -0.01957657 [kcal/mol]      -0.08190836 [kJ/mol]

  Special recipe for scaled SAPT0 (see Manual):
    Electrostatics sSAPT0          -0.03092787 [mEh]      -0.01940753 [kcal/mol]      -0.08120110 [kJ/mol]
    Exchange sSAPT0                 0.00000000 [mEh]       0.00000000 [kcal/mol]       0.00000000 [kJ/mol]
    Induction sSAPT0               -0.00005047 [mEh]      -0.00003167 [kcal/mol]      -0.00013250 [kJ/mol]
    Dispersion sSAPT0              -0.00021892 [mEh]      -0.00013737 [kcal/mol]      -0.00057477 [kJ/mol]
  Total sSAPT0                     -0.03119725 [mEh]      -0.01957657 [kcal/mol]      -0.08190836 [kJ/mol]
  --------------------------------------------------------------------------------------------------------

*** Psi4 exiting successfully. Buy a developer a beer!
