                               Psi4 1.4rc3

  ==> Input File <==

--------------------------------------------------------------------------
# PSI4 file produced by CrystaLattE

# Generated from:               imidazole.xyz
# Psithon input for N-mer:      2mer-0+35
# Number of atoms per monomer:  [9, 9]
# Number of replicas:           2
# COM priority:                 2.017608314956e-04
# Minimum COM separations:      9.022
# Separation priority:          5.231535086291e-04
# Minimum monomer separations:  6.567
# Cutoff priority:              4.215400633511e-05
# Nuclear repulsion energy:     403.90451833057944

memory 7 GB

molecule Dimer_0_35 {
  N           -4.29309621      -3.06837431       5.30516231
  N           -2.15847371      -2.92627296       1.72037448
  H           -0.02545587      -6.35903575       2.22046452
  H           -2.68566968      -6.53260241       6.61445954
  H           -4.74388423      -0.00609006       2.75615968
  H           -1.41045540      -2.24723147       0.00000000
  C           -1.43737991      -5.07504848       2.94065891
  C           -2.76900782      -5.14609916       5.13522880
  C           -3.85955036      -1.77728198       3.21093411
--
  N           -9.65700575      -3.06837431     -10.87898141
  N           -7.52238325      -2.92627296     -14.46376924
  H           -5.38936541      -6.35903575     -13.96367920
  H           -8.04957922      -6.53260241      -9.56968418
  H          -10.10779377      -0.00609006     -13.42798405
  H           -6.77436494      -2.24723147     -16.18414372
  C           -6.80128945      -5.07504848     -13.24348481
  C           -8.13291736      -5.14609916     -11.04891492
  C           -9.22345990      -1.77728198     -12.97320961
units = au
no_com
no_reorient
}

set {
  e_convergence 10
  d_convergence 10
  scf_type df
  mp2_type df
  cc_type df
  freeze_core true
}

energy('sapt0/aug-cc-pvdz')

--------------------------------------------------------------------------

  //              Dimer HF             //
    Molecular point group: c1
  Charge       = 0
  Multiplicity = 1
  Basis Set: AUG-CC-PVDZ
    Blend: AUG-CC-PVDZ
  Basis Set: (AUG-CC-PVDZ AUX)
    Blend: AUG-CC-PVDZ-JKFIT
  @DF-RHF Final Energy:  -449.68755148539378
    Total Energy =                       -449.6875514853937830
  //            Monomer A HF           //
    Molecular point group: c1
  Multiplicity = 1
  Basis Set: AUG-CC-PVDZ
    Blend: AUG-CC-PVDZ
  Basis Set: (AUG-CC-PVDZ AUX)
    Blend: AUG-CC-PVDZ-JKFIT
  @DF-RHF Final Energy:  -224.84370264532953
    Total Energy =                       -224.8437026453295289
  //            Monomer B HF           //
    Molecular point group: c1

    Geometry (in Bohr), charge = 0, multiplicity = 1:

       Center              X                  Y                   Z               Mass
    ------------   -----------------  -----------------  -----------------  -----------------
      Gh(N)          -4.293096210000    -3.068374310000     5.305162310000    14.003074004430
      Gh(N)          -2.158473710000    -2.926272960000     1.720374480000    14.003074004430
      Gh(H)          -0.025455870000    -6.359035750000     2.220464520000     1.007825032230
      Gh(H)          -2.685669680000    -6.532602410000     6.614459540000     1.007825032230
      Gh(H)          -4.743884230000    -0.006090060000     2.756159680000     1.007825032230
      Gh(H)          -1.410455400000    -2.247231470000     0.000000000000     1.007825032230
      Gh(C)          -1.437379910000    -5.075048480000     2.940658910000    12.000000000000
      Gh(C)          -2.769007820000    -5.146099160000     5.135228800000    12.000000000000
      Gh(C)          -3.859550360000    -1.777281980000     3.210934110000    12.000000000000
         N           -9.657005750000    -3.068374310000   -10.878981410000    14.003074004430
         N           -7.522383250000    -2.926272960000   -14.463769240000    14.003074004430
         H           -5.389365410000    -6.359035750000   -13.963679200000     1.007825032230
         H           -8.049579220000    -6.532602410000    -9.569684180000     1.007825032230
         H          -10.107793770000    -0.006090060000   -13.427984050000     1.007825032230
         H           -6.774364940000    -2.247231470000   -16.184143720000     1.007825032230
         C           -6.801289450000    -5.075048480000   -13.243484810000    12.000000000000
         C           -8.132917360000    -5.146099160000   -11.048914920000    12.000000000000
         C           -9.223459900000    -1.777281980000   -12.973209610000    12.000000000000

  Charge       = 0
  Multiplicity = 1
  Basis Set: AUG-CC-PVDZ
    Blend: AUG-CC-PVDZ
  Basis Set: (AUG-CC-PVDZ AUX)
    Blend: AUG-CC-PVDZ-JKFIT

    Orbital Energies [Eh]
    ---------------------

    Doubly Occupied:

       1A    -15.637073     2A    -15.551221     3A    -11.300918
       4A    -11.263160     5A    -11.245651     6A     -1.352869
       7A     -1.169101     8A     -1.012100     9A     -0.824392
      10A     -0.803733    11A     -0.760669    12A     -0.610098
      13A     -0.603959    14A     -0.601925    15A     -0.570945
      16A     -0.435485    17A     -0.400467    18A     -0.320687

  @DF-RHF Final Energy:  -224.84370489199503

   => Energetics <=

    Nuclear Repulsion Energy =            164.0866959887225391
    One-Electron Energy =                -628.9318908558152543
    Two-Electron Energy =                 240.0014899750976554
    Total Energy =                       -224.8437048919950314

  Dipole Moment: [D]
     X:     2.0429      Y:     0.4152      Z:    -3.3867     Total:     3.9769

    SAPT Results
  --------------------------------------------------------------------------------------------------------
    Electrostatics                 -0.13499091 [mEh]      -0.08470807 [kcal/mol]      -0.35441858 [kJ/mol]
      Elst10,r                     -0.13499091 [mEh]      -0.08470807 [kcal/mol]      -0.35441858 [kJ/mol]

    Exchange                        0.00000251 [mEh]       0.00000157 [kcal/mol]       0.00000659 [kJ/mol]
      Exch10                        0.00000251 [mEh]       0.00000157 [kcal/mol]       0.00000659 [kJ/mol]
      Exch10(S^2)                   0.00000251 [mEh]       0.00000157 [kcal/mol]       0.00000659 [kJ/mol]

    Induction                      -0.00895967 [mEh]      -0.00562228 [kcal/mol]      -0.02352361 [kJ/mol]
      Ind20,r                      -0.00894132 [mEh]      -0.00561076 [kcal/mol]      -0.02347542 [kJ/mol]
      Exch-Ind20,r                  0.00000867 [mEh]       0.00000544 [kcal/mol]       0.00002278 [kJ/mol]
      delta HF,r (2)               -0.00002703 [mEh]      -0.00001696 [kcal/mol]      -0.00007096 [kJ/mol]

    Dispersion                     -0.05680416 [mEh]      -0.03564515 [kcal/mol]      -0.14913929 [kJ/mol]
      Disp20                       -0.05680762 [mEh]      -0.03564732 [kcal/mol]      -0.14914840 [kJ/mol]
      Exch-Disp20                   0.00000347 [mEh]       0.00000218 [kcal/mol]       0.00000910 [kJ/mol]
      Disp20 (SS)                  -0.02840381 [mEh]      -0.01782366 [kcal/mol]      -0.07457420 [kJ/mol]
      Disp20 (OS)                  -0.02840381 [mEh]      -0.01782366 [kcal/mol]      -0.07457420 [kJ/mol]
      Exch-Disp20 (SS)              0.00000280 [mEh]       0.00000176 [kcal/mol]       0.00000736 [kJ/mol]
      Exch-Disp20 (OS)              0.00000066 [mEh]       0.00000042 [kcal/mol]       0.00000174 [kJ/mol]

  Total HF                         -0.14394807 [mEh]      -0.09032878 [kcal/mol]      -0.37793560 [kJ/mol]
  Total SAPT0                      -0.20075223 [mEh]      -0.12597392 [kcal/mol]      -0.52707490 [kJ/mol]

  Special recipe for scaled SAPT0 (see Manual):
    Electrostatics sSAPT0          -0.13499091 [mEh]      -0.08470807 [kcal/mol]      -0.35441858 [kJ/mol]
    Exchange sSAPT0                 0.00000251 [mEh]       0.00000157 [kcal/mol]       0.00000659 [kJ/mol]
    Induction sSAPT0               -0.00895967 [mEh]      -0.00562228 [kcal/mol]      -0.02352361 [kJ/mol]
    Dispersion sSAPT0              -0.05680416 [mEh]      -0.03564515 [kcal/mol]      -0.14913929 [kJ/mol]
  Total sSAPT0                     -0.20075223 [mEh]      -0.12597392 [kcal/mol]      -0.52707490 [kJ/mol]
  --------------------------------------------------------------------------------------------------------

*** Psi4 exiting successfully. Buy a developer a beer!
