                               Psi4 1.4rc3

  ==> Input File <==

--------------------------------------------------------------------------
# PSI4 file produced by CrystaLattE

# Generated from:               imidazole.xyz
# Psithon input for N-mer:      2mer-0+360
# Number of atoms per monomer:  [9, 9]
# Number of replicas:           1
# COM priority:                 2.690789086640e-05
# Minimum COM separations:      17.659
# Separation priority:          4.235277564075e-05
# Minimum monomer separations:  15.181
# Cutoff priority:              1.476304137198e-06
# Nuclear repulsion energy:     367.01307876426466

memory 7 GB

molecule Dimer_0_360 {
  N           -4.29309621      -3.06837431       5.30516231
  N           -2.15847371      -2.92627296       1.72037448
  H           -0.02545587      -6.35903575       2.22046452
  H           -2.68566968      -6.53260241       6.61445954
  H           -4.74388423      -0.00609006       2.75615968
  H           -1.41045540      -2.24723147       0.00000000
  C           -1.43737991      -5.07504848       2.94065891
  C           -2.76900782      -5.14609916       5.13522880
  C           -3.85955036      -1.77728198       3.21093411
--
  N           -4.72980061     -36.62865492      -4.69340168
  N           -6.86442311     -36.77075628      -1.10861384
  H           -8.99744096     -33.33799348      -1.60870389
  H           -6.33722715     -33.16442682      -6.00269891
  H           -4.27901260     -39.69093917      -2.14439904
  H           -7.61244142     -37.44979776       0.61176063
  C           -7.58551691     -34.62198075      -2.32889828
  C           -6.25388901     -34.55093007      -4.52346817
  C           -5.16334647     -37.91974725      -2.59917348
units = au
no_com
no_reorient
}

set {
  e_convergence 10
  d_convergence 10
  scf_type df
  mp2_type df
  cc_type df
  freeze_core true
}

energy('sapt0/aug-cc-pvdz')

--------------------------------------------------------------------------

  //              Dimer HF             //
    Molecular point group: c1
  Charge       = 0
  Multiplicity = 1
  Basis Set: AUG-CC-PVDZ
    Blend: AUG-CC-PVDZ
  Basis Set: (AUG-CC-PVDZ AUX)
    Blend: AUG-CC-PVDZ-JKFIT
  @DF-RHF Final Energy:  -449.68744582333096
    Total Energy =                       -449.6874458233310179
  //            Monomer A HF           //
    Molecular point group: c1
  Multiplicity = 1
  Basis Set: AUG-CC-PVDZ
    Blend: AUG-CC-PVDZ
  Basis Set: (AUG-CC-PVDZ AUX)
    Blend: AUG-CC-PVDZ-JKFIT
  @DF-RHF Final Energy:  -224.84369627946688
    Total Energy =                       -224.8436962794668830
  //            Monomer B HF           //
    Molecular point group: c1

    Geometry (in Bohr), charge = 0, multiplicity = 1:

       Center              X                  Y                   Z               Mass
    ------------   -----------------  -----------------  -----------------  -----------------
      Gh(N)          -4.293096210000    -3.068374310000     5.305162310000    14.003074004430
      Gh(N)          -2.158473710000    -2.926272960000     1.720374480000    14.003074004430
      Gh(H)          -0.025455870000    -6.359035750000     2.220464520000     1.007825032230
      Gh(H)          -2.685669680000    -6.532602410000     6.614459540000     1.007825032230
      Gh(H)          -4.743884230000    -0.006090060000     2.756159680000     1.007825032230
      Gh(H)          -1.410455400000    -2.247231470000     0.000000000000     1.007825032230
      Gh(C)          -1.437379910000    -5.075048480000     2.940658910000    12.000000000000
      Gh(C)          -2.769007820000    -5.146099160000     5.135228800000    12.000000000000
      Gh(C)          -3.859550360000    -1.777281980000     3.210934110000    12.000000000000
         N           -4.729800610000   -36.628654920000    -4.693401680000    14.003074004430
         N           -6.864423110000   -36.770756280000    -1.108613840000    14.003074004430
         H           -8.997440960000   -33.337993480000    -1.608703890000     1.007825032230
         H           -6.337227150000   -33.164426820000    -6.002698910000     1.007825032230
         H           -4.279012600000   -39.690939170000    -2.144399040000     1.007825032230
         H           -7.612441420000   -37.449797760000     0.611760630000     1.007825032230
         C           -7.585516910000   -34.621980750000    -2.328898280000    12.000000000000
         C           -6.253889010000   -34.550930070000    -4.523468170000    12.000000000000
         C           -5.163346470000   -37.919747250000    -2.599173480000    12.000000000000

  Charge       = 0
  Multiplicity = 1
  Basis Set: AUG-CC-PVDZ
    Blend: AUG-CC-PVDZ
  Basis Set: (AUG-CC-PVDZ AUX)
    Blend: AUG-CC-PVDZ-JKFIT

    Orbital Energies [Eh]
    ---------------------

    Doubly Occupied:

       1A    -15.637071     2A    -15.551216     3A    -11.300916
       4A    -11.263160     5A    -11.245653     6A     -1.352867
       7A     -1.169098     8A     -1.012098     9A     -0.824390
      10A     -0.803731    11A     -0.760666    12A     -0.610096
      13A     -0.603958    14A     -0.601922    15A     -0.570942
      16A     -0.435483    17A     -0.400464    18A     -0.320685

  @DF-RHF Final Energy:  -224.84369627901373

   => Energetics <=

    Nuclear Repulsion Energy =            164.0866958869485757
    One-Electron Energy =                -628.9319560919943797
    Two-Electron Energy =                 240.0015639260320768
    Total Energy =                       -224.8436962790137272

  Dipole Moment: [D]
     X:    -2.0431      Y:    -0.4150      Z:     3.3867     Total:     3.9769

    SAPT Results
  --------------------------------------------------------------------------------------------------------
    Electrostatics                 -0.05319453 [mEh]      -0.03338007 [kcal/mol]      -0.13966222 [kJ/mol]
      Elst10,r                     -0.05319453 [mEh]      -0.03338007 [kcal/mol]      -0.13966222 [kJ/mol]

    Exchange                        0.00000000 [mEh]       0.00000000 [kcal/mol]       0.00000000 [kJ/mol]
      Exch10                        0.00000000 [mEh]       0.00000000 [kcal/mol]       0.00000000 [kJ/mol]
      Exch10(S^2)                   0.00000000 [mEh]       0.00000000 [kcal/mol]       0.00000000 [kJ/mol]

    Induction                      -0.00007032 [mEh]      -0.00004413 [kcal/mol]      -0.00018462 [kJ/mol]
      Ind20,r                      -0.00008115 [mEh]      -0.00005092 [kcal/mol]      -0.00021306 [kJ/mol]
      Exch-Ind20,r                  0.00000000 [mEh]       0.00000000 [kcal/mol]       0.00000000 [kJ/mol]
      delta HF,r (2)                0.00001083 [mEh]       0.00000680 [kcal/mol]       0.00002844 [kJ/mol]

    Dispersion                     -0.00092371 [mEh]      -0.00057964 [kcal/mol]      -0.00242520 [kJ/mol]
      Disp20                       -0.00092371 [mEh]      -0.00057964 [kcal/mol]      -0.00242520 [kJ/mol]
      Exch-Disp20                   0.00000000 [mEh]       0.00000000 [kcal/mol]       0.00000000 [kJ/mol]
      Disp20 (SS)                  -0.00046186 [mEh]      -0.00028982 [kcal/mol]      -0.00121260 [kJ/mol]
      Disp20 (OS)                  -0.00046186 [mEh]      -0.00028982 [kcal/mol]      -0.00121260 [kJ/mol]
      Exch-Disp20 (SS)              0.00000000 [mEh]       0.00000000 [kcal/mol]       0.00000000 [kJ/mol]
      Exch-Disp20 (OS)              0.00000000 [mEh]       0.00000000 [kcal/mol]       0.00000000 [kJ/mol]

  Total HF                         -0.05326485 [mEh]      -0.03342420 [kcal/mol]      -0.13984685 [kJ/mol]
  Total SAPT0                      -0.05418856 [mEh]      -0.03400384 [kcal/mol]      -0.14227205 [kJ/mol]

  Special recipe for scaled SAPT0 (see Manual):
    Electrostatics sSAPT0          -0.05319453 [mEh]      -0.03338007 [kcal/mol]      -0.13966222 [kJ/mol]
    Exchange sSAPT0                 0.00000000 [mEh]       0.00000000 [kcal/mol]       0.00000000 [kJ/mol]
    Induction sSAPT0               -0.00007032 [mEh]      -0.00004413 [kcal/mol]      -0.00018462 [kJ/mol]
    Dispersion sSAPT0              -0.00092371 [mEh]      -0.00057964 [kcal/mol]      -0.00242520 [kJ/mol]
  Total sSAPT0                     -0.05418856 [mEh]      -0.03400384 [kcal/mol]      -0.14227205 [kJ/mol]
  --------------------------------------------------------------------------------------------------------

*** Psi4 exiting successfully. Buy a developer a beer!
