                               Psi4 1.4rc3

  ==> Input File <==

--------------------------------------------------------------------------
# PSI4 file produced by CrystaLattE

# Generated from:               imidazole.xyz
# Psithon input for N-mer:      2mer-0+103
# Number of atoms per monomer:  [9, 9]
# Number of replicas:           1
# COM priority:                 3.978285600183e-05
# Minimum COM separations:      15.501
# Separation priority:          9.679811375167e-05
# Minimum monomer separations:  11.525
# Cutoff priority:              4.444496065378e-06
# Nuclear repulsion energy:     372.5194330135399

memory 7 GB

molecule Dimer_0_103 {
  N           -4.29309621      -3.06837431       5.30516231
  N           -2.15847371      -2.92627296       1.72037448
  H           -0.02545587      -6.35903575       2.22046452
  H           -2.68566968      -6.53260241       6.61445954
  H           -4.74388423      -0.00609006       2.75615968
  H           -1.41045540      -2.24723147       0.00000000
  C           -1.43737991      -5.07504848       2.94065891
  C           -2.76900782      -5.14609916       5.13522880
  C           -3.85955036      -1.77728198       3.21093411
--
  N           -4.72980061      24.27192687      -4.69340168
  N           -6.86442311      24.12982552      -1.10861384
  H           -8.99744096      27.56258831      -1.60870389
  H           -6.33722715      27.73615497      -6.00269891
  H           -4.27901260      21.20964262      -2.14439904
  H           -7.61244142      23.45078403       0.61176063
  C           -7.58551691      26.27860104      -2.32889828
  C           -6.25388901      26.34965172      -4.52346817
  C           -5.16334647      22.98083454      -2.59917348
units = au
no_com
no_reorient
}

set {
  e_convergence 10
  d_convergence 10
  scf_type df
  mp2_type df
  cc_type df
  freeze_core true
}

energy('sapt0/aug-cc-pvdz')

--------------------------------------------------------------------------

  //              Dimer HF             //
    Molecular point group: c1
  Charge       = 0
  Multiplicity = 1
  Basis Set: AUG-CC-PVDZ
    Blend: AUG-CC-PVDZ
  Basis Set: (AUG-CC-PVDZ AUX)
    Blend: AUG-CC-PVDZ-JKFIT
  @DF-RHF Final Energy:  -449.68747429792478
    Total Energy =                       -449.6874742979247230
  //            Monomer A HF           //
    Molecular point group: c1
  Multiplicity = 1
  Basis Set: AUG-CC-PVDZ
    Blend: AUG-CC-PVDZ
  Basis Set: (AUG-CC-PVDZ AUX)
    Blend: AUG-CC-PVDZ-JKFIT
  @DF-RHF Final Energy:  -224.84369629812556
    Total Energy =                       -224.8436962981255647
  //            Monomer B HF           //
    Molecular point group: c1

    Geometry (in Bohr), charge = 0, multiplicity = 1:

       Center              X                  Y                   Z               Mass
    ------------   -----------------  -----------------  -----------------  -----------------
      Gh(N)          -4.293096210000    -3.068374310000     5.305162310000    14.003074004430
      Gh(N)          -2.158473710000    -2.926272960000     1.720374480000    14.003074004430
      Gh(H)          -0.025455870000    -6.359035750000     2.220464520000     1.007825032230
      Gh(H)          -2.685669680000    -6.532602410000     6.614459540000     1.007825032230
      Gh(H)          -4.743884230000    -0.006090060000     2.756159680000     1.007825032230
      Gh(H)          -1.410455400000    -2.247231470000     0.000000000000     1.007825032230
      Gh(C)          -1.437379910000    -5.075048480000     2.940658910000    12.000000000000
      Gh(C)          -2.769007820000    -5.146099160000     5.135228800000    12.000000000000
      Gh(C)          -3.859550360000    -1.777281980000     3.210934110000    12.000000000000
         N           -4.729800610000    24.271926870000    -4.693401680000    14.003074004430
         N           -6.864423110000    24.129825520000    -1.108613840000    14.003074004430
         H           -8.997440960000    27.562588310000    -1.608703890000     1.007825032230
         H           -6.337227150000    27.736154970000    -6.002698910000     1.007825032230
         H           -4.279012600000    21.209642620000    -2.144399040000     1.007825032230
         H           -7.612441420000    23.450784030000     0.611760630000     1.007825032230
         C           -7.585516910000    26.278601040000    -2.328898280000    12.000000000000
         C           -6.253889010000    26.349651720000    -4.523468170000    12.000000000000
         C           -5.163346470000    22.980834540000    -2.599173480000    12.000000000000

  Charge       = 0
  Multiplicity = 1
  Basis Set: AUG-CC-PVDZ
    Blend: AUG-CC-PVDZ
  Basis Set: (AUG-CC-PVDZ AUX)
    Blend: AUG-CC-PVDZ-JKFIT

    Orbital Energies [Eh]
    ---------------------

    Doubly Occupied:

       1A    -15.637071     2A    -15.551216     3A    -11.300916
       4A    -11.263160     5A    -11.245653     6A     -1.352867
       7A     -1.169098     8A     -1.012098     9A     -0.824390
      10A     -0.803731    11A     -0.760666    12A     -0.610096
      13A     -0.603958    14A     -0.601922    15A     -0.570942
      16A     -0.435483    17A     -0.400464    18A     -0.320685

  @DF-RHF Final Energy:  -224.84369629903833

   => Energetics <=

    Nuclear Repulsion Energy =            164.0866959201759698
    One-Electron Energy =                -628.9319563999833917
    Two-Electron Energy =                 240.0015641807690656
    Total Energy =                       -224.8436962990383279

  Dipole Moment: [D]
     X:    -2.0431      Y:    -0.4150      Z:     3.3867     Total:     3.9769

    SAPT Results
  --------------------------------------------------------------------------------------------------------
    Electrostatics                 -0.08130994 [mEh]      -0.05102276 [kcal/mol]      -0.21347922 [kJ/mol]
      Elst10,r                     -0.08130994 [mEh]      -0.05102276 [kcal/mol]      -0.21347922 [kJ/mol]

    Exchange                       -0.00000001 [mEh]      -0.00000000 [kcal/mol]      -0.00000002 [kJ/mol]
      Exch10                       -0.00000001 [mEh]      -0.00000000 [kcal/mol]      -0.00000002 [kJ/mol]
      Exch10(S^2)                  -0.00000001 [mEh]      -0.00000000 [kcal/mol]      -0.00000002 [kJ/mol]

    Induction                      -0.00039081 [mEh]      -0.00024524 [kcal/mol]      -0.00102608 [kJ/mol]
      Ind20,r                      -0.00036927 [mEh]      -0.00023172 [kcal/mol]      -0.00096951 [kJ/mol]
      Exch-Ind20,r                  0.00000001 [mEh]       0.00000001 [kcal/mol]       0.00000004 [kJ/mol]
      delta HF,r (2)               -0.00002156 [mEh]      -0.00001353 [kcal/mol]      -0.00005661 [kJ/mol]

    Dispersion                     -0.00228641 [mEh]      -0.00143474 [kcal/mol]      -0.00600296 [kJ/mol]
      Disp20                       -0.00228641 [mEh]      -0.00143474 [kcal/mol]      -0.00600297 [kJ/mol]
      Exch-Disp20                   0.00000000 [mEh]       0.00000000 [kcal/mol]       0.00000001 [kJ/mol]
      Disp20 (SS)                  -0.00114320 [mEh]      -0.00071737 [kcal/mol]      -0.00300148 [kJ/mol]
      Disp20 (OS)                  -0.00114320 [mEh]      -0.00071737 [kcal/mol]      -0.00300148 [kJ/mol]
      Exch-Disp20 (SS)              0.00000000 [mEh]       0.00000000 [kcal/mol]       0.00000001 [kJ/mol]
      Exch-Disp20 (OS)              0.00000000 [mEh]       0.00000000 [kcal/mol]       0.00000000 [kJ/mol]

  Total HF                         -0.08170076 [mEh]      -0.05126800 [kcal/mol]      -0.21450532 [kJ/mol]
  Total SAPT0                      -0.08398717 [mEh]      -0.05270274 [kcal/mol]      -0.22050828 [kJ/mol]

  Special recipe for scaled SAPT0 (see Manual):
    Electrostatics sSAPT0          -0.08130994 [mEh]      -0.05102276 [kcal/mol]      -0.21347922 [kJ/mol]
    Exchange sSAPT0                -0.00000001 [mEh]      -0.00000000 [kcal/mol]      -0.00000002 [kJ/mol]
    Induction sSAPT0               -0.00039081 [mEh]      -0.00024524 [kcal/mol]      -0.00102608 [kJ/mol]
    Dispersion sSAPT0              -0.00228641 [mEh]      -0.00143474 [kcal/mol]      -0.00600296 [kJ/mol]
  Total sSAPT0                     -0.08398717 [mEh]      -0.05270274 [kcal/mol]      -0.22050828 [kJ/mol]
  --------------------------------------------------------------------------------------------------------

*** Psi4 exiting successfully. Buy a developer a beer!
