                               Psi4 1.4rc3

  ==> Input File <==

--------------------------------------------------------------------------
# PSI4 file produced by CrystaLattE

# Generated from:               imidazole.xyz
# Psithon input for N-mer:      2mer-0+341
# Number of atoms per monomer:  [9, 9]
# Number of replicas:           2
# COM priority:                 1.424544149279e-05
# Minimum COM separations:      21.829
# Separation priority:          2.231182093192e-05
# Minimum monomer separations:  18.797
# Cutoff priority:              6.281258801821e-07
# Nuclear repulsion energy:     359.61596176292437

memory 7 GB

molecule Dimer_0_341 {
  N           -4.29309621      -3.06837431       5.30516231
  N           -2.15847371      -2.92627296       1.72037448
  H           -0.02545587      -6.35903575       2.22046452
  H           -2.68566968      -6.53260241       6.61445954
  H           -4.74388423      -0.00609006       2.75615968
  H           -1.41045540      -2.24723147       0.00000000
  C           -1.43737991      -5.07504848       2.94065891
  C           -2.76900782      -5.14609916       5.13522880
  C           -3.85955036      -1.77728198       3.21093411
--
  N           19.44457630      32.45696507       3.39867018
  N           17.30995380      32.59906642       6.98345802
  H           15.17693595      29.16630363       6.48336797
  H           17.83714977      28.99273697       2.08937295
  H           19.89536431      35.51924932       5.94767282
  H           16.56193549      33.27810791       8.70383249
  C           16.58886000      30.45029090       5.76317358
  C           17.92048791      30.37924022       3.56860369
  C           19.01103044      33.74805740       5.49289838
units = au
no_com
no_reorient
}

set {
  e_convergence 10
  d_convergence 10
  scf_type df
  mp2_type df
  cc_type df
  freeze_core true
}

energy('sapt0/aug-cc-pvdz')

--------------------------------------------------------------------------

  //              Dimer HF             //
    Molecular point group: c1
  Charge       = 0
  Multiplicity = 1
  Basis Set: AUG-CC-PVDZ
    Blend: AUG-CC-PVDZ
  Basis Set: (AUG-CC-PVDZ AUX)
    Blend: AUG-CC-PVDZ-JKFIT
  @DF-RHF Final Energy:  -449.68741864728827
    Total Energy =                       -449.6874186472882684
  //            Monomer A HF           //
    Molecular point group: c1
  Multiplicity = 1
  Basis Set: AUG-CC-PVDZ
    Blend: AUG-CC-PVDZ
  Basis Set: (AUG-CC-PVDZ AUX)
    Blend: AUG-CC-PVDZ-JKFIT
  @DF-RHF Final Energy:  -224.84369627787015
    Total Energy =                       -224.8436962778701513
  //            Monomer B HF           //
    Molecular point group: c1

    Geometry (in Bohr), charge = 0, multiplicity = 1:

       Center              X                  Y                   Z               Mass
    ------------   -----------------  -----------------  -----------------  -----------------
      Gh(N)          -4.293096210000    -3.068374310000     5.305162310000    14.003074004430
      Gh(N)          -2.158473710000    -2.926272960000     1.720374480000    14.003074004430
      Gh(H)          -0.025455870000    -6.359035750000     2.220464520000     1.007825032230
      Gh(H)          -2.685669680000    -6.532602410000     6.614459540000     1.007825032230
      Gh(H)          -4.743884230000    -0.006090060000     2.756159680000     1.007825032230
      Gh(H)          -1.410455400000    -2.247231470000     0.000000000000     1.007825032230
      Gh(C)          -1.437379910000    -5.075048480000     2.940658910000    12.000000000000
      Gh(C)          -2.769007820000    -5.146099160000     5.135228800000    12.000000000000
      Gh(C)          -3.859550360000    -1.777281980000     3.210934110000    12.000000000000
         N           19.444576300000    32.456965070000     3.398670180000    14.003074004430
         N           17.309953800000    32.599066420000     6.983458020000    14.003074004430
         H           15.176935950000    29.166303630000     6.483367970000     1.007825032230
         H           17.837149770000    28.992736970000     2.089372950000     1.007825032230
         H           19.895364310000    35.519249320000     5.947672820000     1.007825032230
         H           16.561935490000    33.278107910000     8.703832490000     1.007825032230
         C           16.588860000000    30.450290900000     5.763173580000    12.000000000000
         C           17.920487910000    30.379240220000     3.568603690000    12.000000000000
         C           19.011030440000    33.748057400000     5.492898380000    12.000000000000

  Charge       = 0
  Multiplicity = 1
  Basis Set: AUG-CC-PVDZ
    Blend: AUG-CC-PVDZ
  Basis Set: (AUG-CC-PVDZ AUX)
    Blend: AUG-CC-PVDZ-JKFIT

    Orbital Energies [Eh]
    ---------------------

    Doubly Occupied:

       1A    -15.637071     2A    -15.551216     3A    -11.300916
       4A    -11.263160     5A    -11.245653     6A     -1.352867
       7A     -1.169098     8A     -1.012098     9A     -0.824390
      10A     -0.803731    11A     -0.760666    12A     -0.610096
      13A     -0.603958    14A     -0.601922    15A     -0.570942
      16A     -0.435483    17A     -0.400464    18A     -0.320685

  @DF-RHF Final Energy:  -224.84369627763544

   => Energetics <=

    Nuclear Repulsion Energy =            164.0866959299459324
    One-Electron Energy =                -628.9319561672424470
    Two-Electron Energy =                 240.0015639596610981
    Total Energy =                       -224.8436962776354449

  Dipole Moment: [D]
     X:    -2.0431      Y:     0.4150      Z:     3.3867     Total:     3.9769

    SAPT Results
  --------------------------------------------------------------------------------------------------------
    Electrostatics                 -0.02605861 [mEh]      -0.01635202 [kcal/mol]      -0.06841687 [kJ/mol]
      Elst10,r                     -0.02605861 [mEh]      -0.01635202 [kcal/mol]      -0.06841687 [kJ/mol]

    Exchange                        0.00000000 [mEh]       0.00000000 [kcal/mol]       0.00000000 [kJ/mol]
      Exch10                        0.00000000 [mEh]       0.00000000 [kcal/mol]       0.00000000 [kJ/mol]
      Exch10(S^2)                   0.00000000 [mEh]       0.00000000 [kcal/mol]       0.00000000 [kJ/mol]

    Induction                      -0.00003317 [mEh]      -0.00002082 [kcal/mol]      -0.00008710 [kJ/mol]
      Ind20,r                      -0.00003038 [mEh]      -0.00001906 [kcal/mol]      -0.00007976 [kJ/mol]
      Exch-Ind20,r                  0.00000000 [mEh]       0.00000000 [kcal/mol]       0.00000000 [kJ/mol]
      delta HF,r (2)               -0.00000279 [mEh]      -0.00000175 [kcal/mol]      -0.00000733 [kJ/mol]

    Dispersion                     -0.00025608 [mEh]      -0.00016069 [kcal/mol]      -0.00067235 [kJ/mol]
      Disp20                       -0.00025608 [mEh]      -0.00016069 [kcal/mol]      -0.00067235 [kJ/mol]
      Exch-Disp20                   0.00000000 [mEh]       0.00000000 [kcal/mol]       0.00000000 [kJ/mol]
      Disp20 (SS)                  -0.00012804 [mEh]      -0.00008035 [kcal/mol]      -0.00033617 [kJ/mol]
      Disp20 (OS)                  -0.00012804 [mEh]      -0.00008035 [kcal/mol]      -0.00033617 [kJ/mol]
      Exch-Disp20 (SS)              0.00000000 [mEh]       0.00000000 [kcal/mol]       0.00000000 [kJ/mol]
      Exch-Disp20 (OS)              0.00000000 [mEh]       0.00000000 [kcal/mol]       0.00000000 [kJ/mol]

  Total HF                         -0.02609178 [mEh]      -0.01637284 [kcal/mol]      -0.06850397 [kJ/mol]
  Total SAPT0                      -0.02634787 [mEh]      -0.01653354 [kcal/mol]      -0.06917631 [kJ/mol]

  Special recipe for scaled SAPT0 (see Manual):
    Electrostatics sSAPT0          -0.02605861 [mEh]      -0.01635202 [kcal/mol]      -0.06841687 [kJ/mol]
    Exchange sSAPT0                 0.00000000 [mEh]       0.00000000 [kcal/mol]       0.00000000 [kJ/mol]
    Induction sSAPT0               -0.00003317 [mEh]      -0.00002082 [kcal/mol]      -0.00008710 [kJ/mol]
    Dispersion sSAPT0              -0.00025608 [mEh]      -0.00016069 [kcal/mol]      -0.00067235 [kJ/mol]
  Total sSAPT0                     -0.02634787 [mEh]      -0.01653354 [kcal/mol]      -0.06917631 [kJ/mol]
  --------------------------------------------------------------------------------------------------------

*** Psi4 exiting successfully. Buy a developer a beer!
