                               Psi4 1.4rc3

  ==> Input File <==

--------------------------------------------------------------------------
# PSI4 file produced by CrystaLattE

# Generated from:               imidazole.xyz
# Psithon input for N-mer:      2mer-0+663
# Number of atoms per monomer:  [9, 9]
# Number of replicas:           1
# COM priority:                 1.541685117261e-05
# Minimum COM separations:      21.262
# Separation priority:          2.641472343472e-05
# Minimum monomer separations:  17.769
# Cutoff priority:              7.866739284565e-07
# Nuclear repulsion energy:     360.40687797929115

memory 7 GB

molecule Dimer_0_663 {
  N           -4.29309621      -3.06837431       5.30516231
  N           -2.15847371      -2.92627296       1.72037448
  H           -0.02545587      -6.35903575       2.22046452
  H           -2.68566968      -6.53260241       6.61445954
  H           -4.74388423      -0.00609006       2.75615968
  H           -1.41045540      -2.24723147       0.00000000
  C           -1.43737991      -5.07504848       2.94065891
  C           -2.76900782      -5.14609916       5.13522880
  C           -3.85955036      -1.77728198       3.21093411
--
  N          -22.65854439     -26.47855795      27.67488576
  N          -24.79316689     -26.62065931      31.25967360
  H          -26.92618474     -23.18789652      30.75958356
  H          -24.26597092     -23.01432986      26.36558854
  H          -22.20775638     -29.54084221      30.22388840
  H          -25.54118520     -27.29970080      32.98004808
  C          -25.51426069     -24.47188378      30.03938916
  C          -24.18263278     -24.40083310      27.84481927
  C          -23.09209025     -27.76965029      29.76911396
units = au
no_com
no_reorient
}

set {
  e_convergence 10
  d_convergence 10
  scf_type df
  mp2_type df
  cc_type df
  freeze_core true
}

energy('sapt0/aug-cc-pvdz')

--------------------------------------------------------------------------

  //              Dimer HF             //
    Molecular point group: c1
  Charge       = 0
  Multiplicity = 1
  Basis Set: AUG-CC-PVDZ
    Blend: AUG-CC-PVDZ
  Basis Set: (AUG-CC-PVDZ AUX)
    Blend: AUG-CC-PVDZ-JKFIT
  @DF-RHF Final Energy:  -449.68735546537141
    Total Energy =                       -449.6873554653714109
  //            Monomer A HF           //
    Molecular point group: c1
  Multiplicity = 1
  Basis Set: AUG-CC-PVDZ
    Blend: AUG-CC-PVDZ
  Basis Set: (AUG-CC-PVDZ AUX)
    Blend: AUG-CC-PVDZ-JKFIT
  @DF-RHF Final Energy:  -224.84369627766046
    Total Energy =                       -224.8436962776604560
  //            Monomer B HF           //
    Molecular point group: c1

    Geometry (in Bohr), charge = 0, multiplicity = 1:

       Center              X                  Y                   Z               Mass
    ------------   -----------------  -----------------  -----------------  -----------------
      Gh(N)          -4.293096210000    -3.068374310000     5.305162310000    14.003074004430
      Gh(N)          -2.158473710000    -2.926272960000     1.720374480000    14.003074004430
      Gh(H)          -0.025455870000    -6.359035750000     2.220464520000     1.007825032230
      Gh(H)          -2.685669680000    -6.532602410000     6.614459540000     1.007825032230
      Gh(H)          -4.743884230000    -0.006090060000     2.756159680000     1.007825032230
      Gh(H)          -1.410455400000    -2.247231470000     0.000000000000     1.007825032230
      Gh(C)          -1.437379910000    -5.075048480000     2.940658910000    12.000000000000
      Gh(C)          -2.769007820000    -5.146099160000     5.135228800000    12.000000000000
      Gh(C)          -3.859550360000    -1.777281980000     3.210934110000    12.000000000000
         N          -22.658544390000   -26.478557950000    27.674885760000    14.003074004430
         N          -24.793166890000   -26.620659310000    31.259673600000    14.003074004430
         H          -26.926184740000   -23.187896520000    30.759583560000     1.007825032230
         H          -24.265970920000   -23.014329860000    26.365588540000     1.007825032230
         H          -22.207756380000   -29.540842210000    30.223888400000     1.007825032230
         H          -25.541185200000   -27.299700800000    32.980048080000     1.007825032230
         C          -25.514260690000   -24.471883780000    30.039389160000    12.000000000000
         C          -24.182632780000   -24.400833100000    27.844819270000    12.000000000000
         C          -23.092090250000   -27.769650290000    29.769113960000    12.000000000000

  Charge       = 0
  Multiplicity = 1
  Basis Set: AUG-CC-PVDZ
    Blend: AUG-CC-PVDZ
  Basis Set: (AUG-CC-PVDZ AUX)
    Blend: AUG-CC-PVDZ-JKFIT

    Orbital Energies [Eh]
    ---------------------

    Doubly Occupied:

       1A    -15.637071     2A    -15.551216     3A    -11.300916
       4A    -11.263160     5A    -11.245653     6A     -1.352867
       7A     -1.169098     8A     -1.012098     9A     -0.824390
      10A     -0.803731    11A     -0.760666    12A     -0.610096
      13A     -0.603958    14A     -0.601922    15A     -0.570942
      16A     -0.435483    17A     -0.400464    18A     -0.320685

  @DF-RHF Final Energy:  -224.84369627721969

   => Energetics <=

    Nuclear Repulsion Energy =            164.0866957940637860
    One-Electron Energy =                -628.9319559017171741
    Two-Electron Energy =                 240.0015638304337244
    Total Energy =                       -224.8436962772196921

  Dipole Moment: [D]
     X:    -2.0431      Y:    -0.4150      Z:     3.3867     Total:     3.9769

    SAPT Results
  --------------------------------------------------------------------------------------------------------
    Electrostatics                  0.03715809 [mEh]       0.02331705 [kcal/mol]       0.09755854 [kJ/mol]
      Elst10,r                      0.03715809 [mEh]       0.02331705 [kcal/mol]       0.09755854 [kJ/mol]

    Exchange                        0.00000000 [mEh]       0.00000000 [kcal/mol]       0.00000000 [kJ/mol]
      Exch10                        0.00000000 [mEh]       0.00000000 [kcal/mol]       0.00000000 [kJ/mol]
      Exch10(S^2)                   0.00000000 [mEh]       0.00000000 [kcal/mol]       0.00000000 [kJ/mol]

    Induction                      -0.00006858 [mEh]      -0.00004303 [kcal/mol]      -0.00018005 [kJ/mol]
      Ind20,r                      -0.00008622 [mEh]      -0.00005410 [kcal/mol]      -0.00022636 [kJ/mol]
      Exch-Ind20,r                  0.00000000 [mEh]       0.00000000 [kcal/mol]       0.00000000 [kJ/mol]
      delta HF,r (2)                0.00001764 [mEh]       0.00001107 [kcal/mol]       0.00004631 [kJ/mol]

    Dispersion                     -0.00033297 [mEh]      -0.00020894 [kcal/mol]      -0.00087421 [kJ/mol]
      Disp20                       -0.00033297 [mEh]      -0.00020894 [kcal/mol]      -0.00087421 [kJ/mol]
      Exch-Disp20                   0.00000000 [mEh]       0.00000000 [kcal/mol]       0.00000000 [kJ/mol]
      Disp20 (SS)                  -0.00016649 [mEh]      -0.00010447 [kcal/mol]      -0.00043711 [kJ/mol]
      Disp20 (OS)                  -0.00016649 [mEh]      -0.00010447 [kcal/mol]      -0.00043711 [kJ/mol]
      Exch-Disp20 (SS)              0.00000000 [mEh]       0.00000000 [kcal/mol]       0.00000000 [kJ/mol]
      Exch-Disp20 (OS)              0.00000000 [mEh]       0.00000000 [kcal/mol]       0.00000000 [kJ/mol]

  Total HF                          0.03708951 [mEh]       0.02327402 [kcal/mol]       0.09737849 [kJ/mol]
  Total SAPT0                       0.03675654 [mEh]       0.02306508 [kcal/mol]       0.09650428 [kJ/mol]

  Special recipe for scaled SAPT0 (see Manual):
    Electrostatics sSAPT0           0.03715809 [mEh]       0.02331705 [kcal/mol]       0.09755854 [kJ/mol]
    Exchange sSAPT0                 0.00000000 [mEh]       0.00000000 [kcal/mol]       0.00000000 [kJ/mol]
    Induction sSAPT0               -0.00006858 [mEh]      -0.00004303 [kcal/mol]      -0.00018005 [kJ/mol]
    Dispersion sSAPT0              -0.00033297 [mEh]      -0.00020894 [kcal/mol]      -0.00087421 [kJ/mol]
  Total sSAPT0                      0.03675654 [mEh]       0.02306508 [kcal/mol]       0.09650428 [kJ/mol]
  --------------------------------------------------------------------------------------------------------

*** Psi4 exiting successfully. Buy a developer a beer!
