                               Psi4 1.4rc3

  ==> Input File <==

--------------------------------------------------------------------------
# PSI4 file produced by CrystaLattE

# Generated from:               imidazole.xyz
# Psithon input for N-mer:      2mer-0+23
# Number of atoms per monomer:  [9, 9]
# Number of replicas:           1
# COM priority:                 1.320847929079e-04
# Minimum COM separations:      10.391
# Separation priority:          5.629167905289e-04
# Minimum monomer separations:  6.409
# Cutoff priority:              4.647923133523e-05
# Nuclear repulsion energy:     394.6587293223074

memory 7 GB

molecule Dimer_0_23 {
  N           -4.29309621      -3.06837431       5.30516231
  N           -2.15847371      -2.92627296       1.72037448
  H           -0.02545587      -6.35903575       2.22046452
  H           -2.68566968      -6.53260241       6.61445954
  H           -4.74388423      -0.00609006       2.75615968
  H           -1.41045540      -2.24723147       0.00000000
  C           -1.43737991      -5.07504848       2.94065891
  C           -2.76900782      -5.14609916       5.13522880
  C           -3.85955036      -1.77728198       3.21093411
--
  N           -4.72980061      14.12182991      -4.69340168
  N           -6.86442311      13.97972855      -1.10861384
  H           -8.99744096      17.41249134      -1.60870389
  H           -6.33722715      17.58605800      -6.00269891
  H           -4.27901260      11.05954565      -2.14439904
  H           -7.61244142      13.30068706       0.61176063
  C           -7.58551691      16.12850408      -2.32889828
  C           -6.25388901      16.19955476      -4.52346817
  C           -5.16334647      12.83073757      -2.59917348
units = au
no_com
no_reorient
}

set {
  e_convergence 10
  d_convergence 10
  scf_type df
  mp2_type df
  cc_type df
  freeze_core true
}

energy('sapt0/aug-cc-pvdz')

--------------------------------------------------------------------------

  //              Dimer HF             //
    Molecular point group: c1
  Charge       = 0
  Multiplicity = 1
  Basis Set: AUG-CC-PVDZ
    Blend: AUG-CC-PVDZ
  Basis Set: (AUG-CC-PVDZ AUX)
    Blend: AUG-CC-PVDZ-JKFIT
  @DF-RHF Final Energy:  -449.68754627809710
    Total Energy =                       -449.6875462780971020
  //            Monomer A HF           //
    Molecular point group: c1
  Multiplicity = 1
  Basis Set: AUG-CC-PVDZ
    Blend: AUG-CC-PVDZ
  Basis Set: (AUG-CC-PVDZ AUX)
    Blend: AUG-CC-PVDZ-JKFIT
  @DF-RHF Final Energy:  -224.84370318506265
    Total Energy =                       -224.8437031850626511
  //            Monomer B HF           //
    Molecular point group: c1

    Geometry (in Bohr), charge = 0, multiplicity = 1:

       Center              X                  Y                   Z               Mass
    ------------   -----------------  -----------------  -----------------  -----------------
      Gh(N)          -4.293096210000    -3.068374310000     5.305162310000    14.003074004430
      Gh(N)          -2.158473710000    -2.926272960000     1.720374480000    14.003074004430
      Gh(H)          -0.025455870000    -6.359035750000     2.220464520000     1.007825032230
      Gh(H)          -2.685669680000    -6.532602410000     6.614459540000     1.007825032230
      Gh(H)          -4.743884230000    -0.006090060000     2.756159680000     1.007825032230
      Gh(H)          -1.410455400000    -2.247231470000     0.000000000000     1.007825032230
      Gh(C)          -1.437379910000    -5.075048480000     2.940658910000    12.000000000000
      Gh(C)          -2.769007820000    -5.146099160000     5.135228800000    12.000000000000
      Gh(C)          -3.859550360000    -1.777281980000     3.210934110000    12.000000000000
         N           -4.729800610000    14.121829910000    -4.693401680000    14.003074004430
         N           -6.864423110000    13.979728550000    -1.108613840000    14.003074004430
         H           -8.997440960000    17.412491340000    -1.608703890000     1.007825032230
         H           -6.337227150000    17.586058000000    -6.002698910000     1.007825032230
         H           -4.279012600000    11.059545650000    -2.144399040000     1.007825032230
         H           -7.612441420000    13.300687060000     0.611760630000     1.007825032230
         C           -7.585516910000    16.128504080000    -2.328898280000    12.000000000000
         C           -6.253889010000    16.199554760000    -4.523468170000    12.000000000000
         C           -5.163346470000    12.830737570000    -2.599173480000    12.000000000000

  Charge       = 0
  Multiplicity = 1
  Basis Set: AUG-CC-PVDZ
    Blend: AUG-CC-PVDZ
  Basis Set: (AUG-CC-PVDZ AUX)
    Blend: AUG-CC-PVDZ-JKFIT

    Orbital Energies [Eh]
    ---------------------

    Doubly Occupied:

       1A    -15.637071     2A    -15.551212     3A    -11.300902
       4A    -11.263160     5A    -11.245653     6A     -1.352867
       7A     -1.169099     8A     -1.012098     9A     -0.824389
      10A     -0.803731    11A     -0.760665    12A     -0.610096
      13A     -0.603958    14A     -0.601922    15A     -0.570943
      16A     -0.435483    17A     -0.400465    18A     -0.320685

  @DF-RHF Final Energy:  -224.84370318548079

   => Energetics <=

    Nuclear Repulsion Energy =            164.0866957986765442
    One-Electron Energy =                -628.9319983079542453
    Two-Electron Energy =                 240.0015993237969099
    Total Energy =                       -224.8437031854807913

  Dipole Moment: [D]
     X:    -2.0431      Y:    -0.4150      Z:     3.3867     Total:     3.9769

    SAPT Results
  --------------------------------------------------------------------------------------------------------
    Electrostatics                 -0.13345442 [mEh]      -0.08374391 [kcal/mol]      -0.35038454 [kJ/mol]
      Elst10,r                     -0.13345442 [mEh]      -0.08374391 [kcal/mol]      -0.35038454 [kJ/mol]

    Exchange                        0.00000327 [mEh]       0.00000205 [kcal/mol]       0.00000860 [kJ/mol]
      Exch10                        0.00000327 [mEh]       0.00000205 [kcal/mol]       0.00000860 [kJ/mol]
      Exch10(S^2)                   0.00000327 [mEh]       0.00000205 [kcal/mol]       0.00000860 [kJ/mol]

    Induction                      -0.00645641 [mEh]      -0.00405146 [kcal/mol]      -0.01695129 [kJ/mol]
      Ind20,r                      -0.00648058 [mEh]      -0.00406662 [kcal/mol]      -0.01701476 [kJ/mol]
      Exch-Ind20,r                  0.00000640 [mEh]       0.00000402 [kcal/mol]       0.00001681 [kJ/mol]
      delta HF,r (2)                0.00001777 [mEh]       0.00001115 [kcal/mol]       0.00004666 [kJ/mol]

    Dispersion                     -0.03087163 [mEh]      -0.01937224 [kcal/mol]      -0.08105347 [kJ/mol]
      Disp20                       -0.03087225 [mEh]      -0.01937263 [kcal/mol]      -0.08105508 [kJ/mol]
      Exch-Disp20                   0.00000062 [mEh]       0.00000039 [kcal/mol]       0.00000162 [kJ/mol]
      Disp20 (SS)                  -0.01543613 [mEh]      -0.00968631 [kcal/mol]      -0.04052754 [kJ/mol]
      Disp20 (OS)                  -0.01543613 [mEh]      -0.00968631 [kcal/mol]      -0.04052754 [kJ/mol]
      Exch-Disp20 (SS)              0.00000051 [mEh]       0.00000032 [kcal/mol]       0.00000134 [kJ/mol]
      Exch-Disp20 (OS)              0.00000011 [mEh]       0.00000007 [kcal/mol]       0.00000028 [kJ/mol]

  Total HF                         -0.13990755 [mEh]      -0.08779332 [kcal/mol]      -0.36732723 [kJ/mol]
  Total SAPT0                      -0.17077919 [mEh]      -0.10716556 [kcal/mol]      -0.44838070 [kJ/mol]

  Special recipe for scaled SAPT0 (see Manual):
    Electrostatics sSAPT0          -0.13345442 [mEh]      -0.08374391 [kcal/mol]      -0.35038454 [kJ/mol]
    Exchange sSAPT0                 0.00000327 [mEh]       0.00000205 [kcal/mol]       0.00000860 [kJ/mol]
    Induction sSAPT0               -0.00645641 [mEh]      -0.00405146 [kcal/mol]      -0.01695129 [kJ/mol]
    Dispersion sSAPT0              -0.03087163 [mEh]      -0.01937224 [kcal/mol]      -0.08105347 [kJ/mol]
  Total sSAPT0                     -0.17077919 [mEh]      -0.10716556 [kcal/mol]      -0.44838070 [kJ/mol]
  --------------------------------------------------------------------------------------------------------

*** Psi4 exiting successfully. Buy a developer a beer!
