                               Psi4 1.4rc3

  ==> Input File <==

--------------------------------------------------------------------------
# PSI4 file produced by CrystaLattE

# Generated from:               imidazole.xyz
# Psithon input for N-mer:      2mer-0+6
# Number of atoms per monomer:  [9, 9]
# Number of replicas:           1
# COM priority:                 2.848628494969e-04
# Minimum COM separations:      8.042
# Separation priority:          1.070709484444e-03
# Minimum monomer separations:  5.173
# Cutoff priority:              1.095373423419e-04
# Nuclear repulsion energy:     413.72639218905334

memory 7 GB

molecule Dimer_0_6 {
  N           -4.29309621      -3.06837431       5.30516231
  N           -2.15847371      -2.92627296       1.72037448
  H           -0.02545587      -6.35903575       2.22046452
  H           -2.68566968      -6.53260241       6.61445954
  H           -4.74388423      -0.00609006       2.75615968
  H           -1.41045540      -2.24723147       0.00000000
  C           -1.43737991      -5.07504848       2.94065891
  C           -2.76900782      -5.14609916       5.13522880
  C           -3.85955036      -1.77728198       3.21093411
--
  N            9.59848081       3.97173294      -4.69340168
  N            7.46385831       3.82963158      -1.10861384
  H            5.33084047       7.26239438      -1.60870389
  H            7.99105428       7.43596104      -6.00269891
  H           10.04926883       0.90944869      -2.14439904
  H            6.71584001       3.15059010       0.61176063
  C            6.74276451       5.97840711      -2.32889828
  C            8.07439242       6.04945779      -4.52346817
  C            9.16493496       2.68064061      -2.59917348
units = au
no_com
no_reorient
}

set {
  e_convergence 10
  d_convergence 10
  scf_type df
  mp2_type df
  cc_type df
  freeze_core true
}

energy('sapt0/aug-cc-pvdz')

--------------------------------------------------------------------------

  //              Dimer HF             //
    Molecular point group: c1
  Charge       = 0
  Multiplicity = 1
  Basis Set: AUG-CC-PVDZ
    Blend: AUG-CC-PVDZ
  Basis Set: (AUG-CC-PVDZ AUX)
    Blend: AUG-CC-PVDZ-JKFIT
  @DF-RHF Final Energy:  -449.68737915380666
    Total Energy =                       -449.6873791538066598
  //            Monomer A HF           //
    Molecular point group: c1
  Multiplicity = 1
  Basis Set: AUG-CC-PVDZ
    Blend: AUG-CC-PVDZ
  Basis Set: (AUG-CC-PVDZ AUX)
    Blend: AUG-CC-PVDZ-JKFIT
  @DF-RHF Final Energy:  -224.84371002298462
    Total Energy =                       -224.8437100229846237
  //            Monomer B HF           //
    Molecular point group: c1

    Geometry (in Bohr), charge = 0, multiplicity = 1:

       Center              X                  Y                   Z               Mass
    ------------   -----------------  -----------------  -----------------  -----------------
      Gh(N)          -4.293096210000    -3.068374310000     5.305162310000    14.003074004430
      Gh(N)          -2.158473710000    -2.926272960000     1.720374480000    14.003074004430
      Gh(H)          -0.025455870000    -6.359035750000     2.220464520000     1.007825032230
      Gh(H)          -2.685669680000    -6.532602410000     6.614459540000     1.007825032230
      Gh(H)          -4.743884230000    -0.006090060000     2.756159680000     1.007825032230
      Gh(H)          -1.410455400000    -2.247231470000     0.000000000000     1.007825032230
      Gh(C)          -1.437379910000    -5.075048480000     2.940658910000    12.000000000000
      Gh(C)          -2.769007820000    -5.146099160000     5.135228800000    12.000000000000
      Gh(C)          -3.859550360000    -1.777281980000     3.210934110000    12.000000000000
         N            9.598480810000     3.971732940000    -4.693401680000    14.003074004430
         N            7.463858310000     3.829631580000    -1.108613840000    14.003074004430
         H            5.330840470000     7.262394380000    -1.608703890000     1.007825032230
         H            7.991054280000     7.435961040000    -6.002698910000     1.007825032230
         H           10.049268830000     0.909448690000    -2.144399040000     1.007825032230
         H            6.715840010000     3.150590100000     0.611760630000     1.007825032230
         C            6.742764510000     5.978407110000    -2.328898280000    12.000000000000
         C            8.074392420000     6.049457790000    -4.523468170000    12.000000000000
         C            9.164934960000     2.680640610000    -2.599173480000    12.000000000000

  Charge       = 0
  Multiplicity = 1
  Basis Set: AUG-CC-PVDZ
    Blend: AUG-CC-PVDZ
  Basis Set: (AUG-CC-PVDZ AUX)
    Blend: AUG-CC-PVDZ-JKFIT

    Orbital Energies [Eh]
    ---------------------

    Doubly Occupied:

       1A    -15.637080     2A    -15.551213     3A    -11.300914
       4A    -11.263159     5A    -11.245651     6A     -1.352868
       7A     -1.169099     8A     -1.012099     9A     -0.824391
      10A     -0.803732    11A     -0.760668    12A     -0.610097
      13A     -0.603958    14A     -0.601924    15A     -0.570942
      16A     -0.435481    17A     -0.400468    18A     -0.320684

  @DF-RHF Final Energy:  -224.84371002395358

   => Energetics <=

    Nuclear Repulsion Energy =            164.0866958647206388
    One-Electron Energy =                -628.9319592702515820
    Two-Electron Energy =                 240.0015533815773665
    Total Energy =                       -224.8437100239535766

  Dipole Moment: [D]
     X:    -2.0434      Y:    -0.4160      Z:     3.3876     Total:     3.9780

    SAPT Results
  --------------------------------------------------------------------------------------------------------
    Electrostatics                  0.06588148 [mEh]       0.04134125 [kcal/mol]       0.17297180 [kJ/mol]
      Elst10,r                      0.06588148 [mEh]       0.04134125 [kcal/mol]       0.17297180 [kJ/mol]

    Exchange                        0.00011881 [mEh]       0.00007455 [kcal/mol]       0.00031193 [kJ/mol]
      Exch10                        0.00011881 [mEh]       0.00007455 [kcal/mol]       0.00031193 [kJ/mol]
      Exch10(S^2)                   0.00011881 [mEh]       0.00007455 [kcal/mol]       0.00031193 [kJ/mol]

    Induction                      -0.02510715 [mEh]      -0.01575498 [kcal/mol]      -0.06591882 [kJ/mol]
      Ind20,r                      -0.02513980 [mEh]      -0.01577546 [kcal/mol]      -0.06600453 [kJ/mol]
      Exch-Ind20,r                  0.00004031 [mEh]       0.00002529 [kcal/mol]       0.00010583 [kJ/mol]
      delta HF,r (2)               -0.00000766 [mEh]      -0.00000481 [kcal/mol]      -0.00002012 [kJ/mol]

    Dispersion                     -0.12438892 [mEh]      -0.07805522 [kcal/mol]      -0.32658306 [kJ/mol]
      Disp20                       -0.12442014 [mEh]      -0.07807482 [kcal/mol]      -0.32666504 [kJ/mol]
      Exch-Disp20                   0.00003122 [mEh]       0.00001959 [kcal/mol]       0.00008198 [kJ/mol]
      Disp20 (SS)                  -0.06221007 [mEh]      -0.03903741 [kcal/mol]      -0.16333252 [kJ/mol]
      Disp20 (OS)                  -0.06221007 [mEh]      -0.03903741 [kcal/mol]      -0.16333252 [kJ/mol]
      Exch-Disp20 (SS)              0.00002347 [mEh]       0.00001473 [kcal/mol]       0.00006161 [kJ/mol]
      Exch-Disp20 (OS)              0.00000776 [mEh]       0.00000487 [kcal/mol]       0.00002037 [kJ/mol]

  Total HF                          0.04089313 [mEh]       0.02566083 [kcal/mol]       0.10736490 [kJ/mol]
  Total SAPT0                      -0.08349579 [mEh]      -0.05239440 [kcal/mol]      -0.21921816 [kJ/mol]

  Special recipe for scaled SAPT0 (see Manual):
    Electrostatics sSAPT0           0.06588148 [mEh]       0.04134125 [kcal/mol]       0.17297180 [kJ/mol]
    Exchange sSAPT0                 0.00011881 [mEh]       0.00007455 [kcal/mol]       0.00031193 [kJ/mol]
    Induction sSAPT0               -0.02510715 [mEh]      -0.01575498 [kcal/mol]      -0.06591882 [kJ/mol]
    Dispersion sSAPT0              -0.12438892 [mEh]      -0.07805522 [kcal/mol]      -0.32658306 [kJ/mol]
  Total sSAPT0                     -0.08349579 [mEh]      -0.05239440 [kcal/mol]      -0.21921816 [kJ/mol]
  --------------------------------------------------------------------------------------------------------

*** Psi4 exiting successfully. Buy a developer a beer!
