                               Psi4 1.4rc3

  ==> Input File <==

--------------------------------------------------------------------------
# PSI4 file produced by CrystaLattE

# Generated from:               imidazole.xyz
# Psithon input for N-mer:      2mer-0+172
# Number of atoms per monomer:  [9, 9]
# Number of replicas:           1
# COM priority:                 2.854321144163e-05
# Minimum COM separations:      17.315
# Separation priority:          6.031279121418e-05
# Minimum monomer separations:  13.494
# Cutoff priority:              2.365261903754e-06
# Nuclear repulsion energy:     368.0185894776363

memory 7 GB

molecule Dimer_0_172 {
  N           -4.29309621      -3.06837431       5.30516231
  N           -2.15847371      -2.92627296       1.72037448
  H           -0.02545587      -6.35903575       2.22046452
  H           -2.68566968      -6.53260241       6.61445954
  H           -4.74388423      -0.00609006       2.75615968
  H           -1.41045540      -2.24723147       0.00000000
  C           -1.43737991      -5.07504848       2.94065891
  C           -2.76900782      -5.14609916       5.13522880
  C           -3.85955036      -1.77728198       3.21093411
--
  N           18.56285270     -16.32846099     -20.87754540
  N           16.42823020     -16.47056235     -17.29275757
  H           14.29521236     -13.03779955     -17.79284761
  H           16.95542617     -12.86423289     -22.18684263
  H           19.01364072     -19.39074524     -18.32854276
  H           15.68021189     -17.14960383     -15.57238309
  C           15.70713640     -14.32178682     -18.51304200
  C           17.03876431     -14.25073614     -20.70761189
  C           18.12930685     -17.61955332     -18.78331720
units = au
no_com
no_reorient
}

set {
  e_convergence 10
  d_convergence 10
  scf_type df
  mp2_type df
  cc_type df
  freeze_core true
}

energy('sapt0/aug-cc-pvdz')

--------------------------------------------------------------------------

  //              Dimer HF             //
    Molecular point group: c1
  Charge       = 0
  Multiplicity = 1
  Basis Set: AUG-CC-PVDZ
    Blend: AUG-CC-PVDZ
  Basis Set: (AUG-CC-PVDZ AUX)
    Blend: AUG-CC-PVDZ-JKFIT
  @DF-RHF Final Energy:  -449.68731206209100
    Total Energy =                       -449.6873120620909958
  //            Monomer A HF           //
    Molecular point group: c1
  Multiplicity = 1
  Basis Set: AUG-CC-PVDZ
    Blend: AUG-CC-PVDZ
  Basis Set: (AUG-CC-PVDZ AUX)
    Blend: AUG-CC-PVDZ-JKFIT
  @DF-RHF Final Energy:  -224.84369627805046
    Total Energy =                       -224.8436962780504587
  //            Monomer B HF           //
    Molecular point group: c1

    Geometry (in Bohr), charge = 0, multiplicity = 1:

       Center              X                  Y                   Z               Mass
    ------------   -----------------  -----------------  -----------------  -----------------
      Gh(N)          -4.293096210000    -3.068374310000     5.305162310000    14.003074004430
      Gh(N)          -2.158473710000    -2.926272960000     1.720374480000    14.003074004430
      Gh(H)          -0.025455870000    -6.359035750000     2.220464520000     1.007825032230
      Gh(H)          -2.685669680000    -6.532602410000     6.614459540000     1.007825032230
      Gh(H)          -4.743884230000    -0.006090060000     2.756159680000     1.007825032230
      Gh(H)          -1.410455400000    -2.247231470000     0.000000000000     1.007825032230
      Gh(C)          -1.437379910000    -5.075048480000     2.940658910000    12.000000000000
      Gh(C)          -2.769007820000    -5.146099160000     5.135228800000    12.000000000000
      Gh(C)          -3.859550360000    -1.777281980000     3.210934110000    12.000000000000
         N           18.562852700000   -16.328460990000   -20.877545400000    14.003074004430
         N           16.428230200000   -16.470562350000   -17.292757570000    14.003074004430
         H           14.295212360000   -13.037799550000   -17.792847610000     1.007825032230
         H           16.955426170000   -12.864232890000   -22.186842630000     1.007825032230
         H           19.013640720000   -19.390745240000   -18.328542760000     1.007825032230
         H           15.680211890000   -17.149603830000   -15.572383090000     1.007825032230
         C           15.707136400000   -14.321786820000   -18.513042000000    12.000000000000
         C           17.038764310000   -14.250736140000   -20.707611890000    12.000000000000
         C           18.129306850000   -17.619553320000   -18.783317200000    12.000000000000

  Charge       = 0
  Multiplicity = 1
  Basis Set: AUG-CC-PVDZ
    Blend: AUG-CC-PVDZ
  Basis Set: (AUG-CC-PVDZ AUX)
    Blend: AUG-CC-PVDZ-JKFIT

    Orbital Energies [Eh]
    ---------------------

    Doubly Occupied:

       1A    -15.637071     2A    -15.551216     3A    -11.300916
       4A    -11.263160     5A    -11.245653     6A     -1.352867
       7A     -1.169098     8A     -1.012098     9A     -0.824390
      10A     -0.803731    11A     -0.760666    12A     -0.610096
      13A     -0.603958    14A     -0.601922    15A     -0.570942
      16A     -0.435483    17A     -0.400464    18A     -0.320685

  @DF-RHF Final Energy:  -224.84369627842071

   => Energetics <=

    Nuclear Repulsion Energy =            164.0866959554951450
    One-Electron Energy =                -628.9319562314597079
    Two-Electron Energy =                 240.0015639975438546
    Total Energy =                       -224.8436962784207083

  Dipole Moment: [D]
     X:    -2.0431      Y:    -0.4150      Z:     3.3867     Total:     3.9769

    SAPT Results
  --------------------------------------------------------------------------------------------------------
    Electrostatics                  0.08088232 [mEh]       0.05075442 [kcal/mol]       0.21235649 [kJ/mol]
      Elst10,r                      0.08088232 [mEh]       0.05075442 [kcal/mol]       0.21235649 [kJ/mol]

    Exchange                        0.00000000 [mEh]       0.00000000 [kcal/mol]       0.00000000 [kJ/mol]
      Exch10                        0.00000000 [mEh]       0.00000000 [kcal/mol]       0.00000000 [kJ/mol]
      Exch10(S^2)                   0.00000000 [mEh]       0.00000000 [kcal/mol]       0.00000000 [kJ/mol]

    Induction                      -0.00038794 [mEh]      -0.00024343 [kcal/mol]      -0.00101853 [kJ/mol]
      Ind20,r                      -0.00037255 [mEh]      -0.00023378 [kcal/mol]      -0.00097812 [kJ/mol]
      Exch-Ind20,r                  0.00000000 [mEh]       0.00000000 [kcal/mol]       0.00000000 [kJ/mol]
      delta HF,r (2)               -0.00001539 [mEh]      -0.00000966 [kcal/mol]      -0.00004041 [kJ/mol]

    Dispersion                     -0.00126633 [mEh]      -0.00079463 [kcal/mol]      -0.00332474 [kJ/mol]
      Disp20                       -0.00126633 [mEh]      -0.00079463 [kcal/mol]      -0.00332474 [kJ/mol]
      Exch-Disp20                   0.00000000 [mEh]       0.00000000 [kcal/mol]       0.00000000 [kJ/mol]
      Disp20 (SS)                  -0.00063316 [mEh]      -0.00039732 [kcal/mol]      -0.00166237 [kJ/mol]
      Disp20 (OS)                  -0.00063316 [mEh]      -0.00039732 [kcal/mol]      -0.00166237 [kJ/mol]
      Exch-Disp20 (SS)              0.00000000 [mEh]       0.00000000 [kcal/mol]       0.00000000 [kJ/mol]
      Exch-Disp20 (OS)              0.00000000 [mEh]       0.00000000 [kcal/mol]       0.00000000 [kJ/mol]

  Total HF                          0.08049438 [mEh]       0.05051099 [kcal/mol]       0.21133797 [kJ/mol]
  Total SAPT0                       0.07922805 [mEh]       0.04971635 [kcal/mol]       0.20801323 [kJ/mol]

  Special recipe for scaled SAPT0 (see Manual):
    Electrostatics sSAPT0           0.08088232 [mEh]       0.05075442 [kcal/mol]       0.21235649 [kJ/mol]
    Exchange sSAPT0                 0.00000000 [mEh]       0.00000000 [kcal/mol]       0.00000000 [kJ/mol]
    Induction sSAPT0               -0.00038794 [mEh]      -0.00024343 [kcal/mol]      -0.00101853 [kJ/mol]
    Dispersion sSAPT0              -0.00126633 [mEh]      -0.00079463 [kcal/mol]      -0.00332474 [kJ/mol]
  Total sSAPT0                      0.07922805 [mEh]       0.04971635 [kcal/mol]       0.20801323 [kJ/mol]
  --------------------------------------------------------------------------------------------------------

*** Psi4 exiting successfully. Buy a developer a beer!
