                               Psi4 1.4rc3

  ==> Input File <==

--------------------------------------------------------------------------
# PSI4 file produced by CrystaLattE

# Generated from:               imidazole.xyz
# Psithon input for N-mer:      2mer-0+282
# Number of atoms per monomer:  [9, 9]
# Number of replicas:           2
# COM priority:                 1.591642008298e-05
# Minimum COM separations:      21.037
# Separation priority:          2.934287219297e-05
# Minimum monomer separations:  17.157
# Cutoff priority:              9.050449775846e-07
# Nuclear repulsion energy:     360.9205436206459

memory 7 GB

molecule Dimer_0_282 {
  N           -4.29309621      -3.06837431       5.30516231
  N           -2.15847371      -2.92627296       1.72037448
  H           -0.02545587      -6.35903575       2.22046452
  H           -2.68566968      -6.53260241       6.61445954
  H           -4.74388423      -0.00609006       2.75615968
  H           -1.41045540      -2.24723147       0.00000000
  C           -1.43737991      -5.07504848       2.94065891
  C           -2.76900782      -5.14609916       5.13522880
  C           -3.85955036      -1.77728198       3.21093411
--
  N           23.04503865       2.00667417     -28.96961726
  N           20.91041615       2.14877553     -25.38482943
  H           18.77739830      -1.28398727     -25.88491947
  H           21.43761212      -1.45755392     -30.27891449
  H           23.49582666       5.06895842     -26.42061463
  H           20.16239784       2.82781701     -23.66445495
  C           20.18932235      -0.00000000     -26.60511386
  C           21.52095025      -0.07105068     -28.79968375
  C           22.61149279       3.29776650     -26.87538906
units = au
no_com
no_reorient
}

set {
  e_convergence 10
  d_convergence 10
  scf_type df
  mp2_type df
  cc_type df
  freeze_core true
}

energy('sapt0/aug-cc-pvdz')

--------------------------------------------------------------------------

  //              Dimer HF             //
    Molecular point group: c1
  Charge       = 0
  Multiplicity = 1
  Basis Set: AUG-CC-PVDZ
    Blend: AUG-CC-PVDZ
  Basis Set: (AUG-CC-PVDZ AUX)
    Blend: AUG-CC-PVDZ-JKFIT
  @DF-RHF Final Energy:  -449.68731598357419
    Total Energy =                       -449.6873159835741944
  //            Monomer A HF           //
    Molecular point group: c1
  Multiplicity = 1
  Basis Set: AUG-CC-PVDZ
    Blend: AUG-CC-PVDZ
  Basis Set: (AUG-CC-PVDZ AUX)
    Blend: AUG-CC-PVDZ-JKFIT
  @DF-RHF Final Energy:  -224.84369627787561
    Total Energy =                       -224.8436962778756083
  //            Monomer B HF           //
    Molecular point group: c1

    Geometry (in Bohr), charge = 0, multiplicity = 1:

       Center              X                  Y                   Z               Mass
    ------------   -----------------  -----------------  -----------------  -----------------
      Gh(N)          -4.293096210000    -3.068374310000     5.305162310000    14.003074004430
      Gh(N)          -2.158473710000    -2.926272960000     1.720374480000    14.003074004430
      Gh(H)          -0.025455870000    -6.359035750000     2.220464520000     1.007825032230
      Gh(H)          -2.685669680000    -6.532602410000     6.614459540000     1.007825032230
      Gh(H)          -4.743884230000    -0.006090060000     2.756159680000     1.007825032230
      Gh(H)          -1.410455400000    -2.247231470000     0.000000000000     1.007825032230
      Gh(C)          -1.437379910000    -5.075048480000     2.940658910000    12.000000000000
      Gh(C)          -2.769007820000    -5.146099160000     5.135228800000    12.000000000000
      Gh(C)          -3.859550360000    -1.777281980000     3.210934110000    12.000000000000
         N           23.045038650000     2.006674170000   -28.969617260000    14.003074004430
         N           20.910416150000     2.148775530000   -25.384829430000    14.003074004430
         H           18.777398300000    -1.283987270000   -25.884919470000     1.007825032230
         H           21.437612120000    -1.457553920000   -30.278914490000     1.007825032230
         H           23.495826660000     5.068958420000   -26.420614630000     1.007825032230
         H           20.162397840000     2.827817010000   -23.664454950000     1.007825032230
         C           20.189322350000     0.000000000000   -26.605113860000    12.000000000000
         C           21.520950250000    -0.071050680000   -28.799683750000    12.000000000000
         C           22.611492790000     3.297766500000   -26.875389060000    12.000000000000

  Charge       = 0
  Multiplicity = 1
  Basis Set: AUG-CC-PVDZ
    Blend: AUG-CC-PVDZ
  Basis Set: (AUG-CC-PVDZ AUX)
    Blend: AUG-CC-PVDZ-JKFIT

    Orbital Energies [Eh]
    ---------------------

    Doubly Occupied:

       1A    -15.637071     2A    -15.551216     3A    -11.300916
       4A    -11.263160     5A    -11.245653     6A     -1.352867
       7A     -1.169098     8A     -1.012098     9A     -0.824390
      10A     -0.803731    11A     -0.760666    12A     -0.610096
      13A     -0.603958    14A     -0.601922    15A     -0.570942
      16A     -0.435483    17A     -0.400464    18A     -0.320685

  @DF-RHF Final Energy:  -224.84369627822304

   => Energetics <=

    Nuclear Repulsion Energy =            164.0866960122479838
    One-Electron Energy =                -628.9319563330361689
    Two-Electron Energy =                 240.0015640425651213
    Total Energy =                       -224.8436962782230353

  Dipole Moment: [D]
     X:    -2.0431      Y:     0.4150      Z:     3.3867     Total:     3.9769

    SAPT Results
  --------------------------------------------------------------------------------------------------------
    Electrostatics                  0.07670300 [mEh]       0.04813186 [kcal/mol]       0.20138370 [kJ/mol]
      Elst10,r                      0.07670300 [mEh]       0.04813186 [kcal/mol]       0.20138370 [kJ/mol]

    Exchange                        0.00000000 [mEh]       0.00000000 [kcal/mol]       0.00000000 [kJ/mol]
      Exch10                        0.00000000 [mEh]       0.00000000 [kcal/mol]       0.00000000 [kJ/mol]
      Exch10(S^2)                   0.00000000 [mEh]       0.00000000 [kcal/mol]       0.00000000 [kJ/mol]

    Induction                      -0.00013048 [mEh]      -0.00008187 [kcal/mol]      -0.00034256 [kJ/mol]
      Ind20,r                      -0.00013673 [mEh]      -0.00008580 [kcal/mol]      -0.00035899 [kJ/mol]
      Exch-Ind20,r                  0.00000000 [mEh]       0.00000000 [kcal/mol]       0.00000000 [kJ/mol]
      delta HF,r (2)                0.00000626 [mEh]       0.00000393 [kcal/mol]       0.00001642 [kJ/mol]

    Dispersion                     -0.00036862 [mEh]      -0.00023131 [kcal/mol]      -0.00096780 [kJ/mol]
      Disp20                       -0.00036862 [mEh]      -0.00023131 [kcal/mol]      -0.00096780 [kJ/mol]
      Exch-Disp20                   0.00000000 [mEh]       0.00000000 [kcal/mol]       0.00000000 [kJ/mol]
      Disp20 (SS)                  -0.00018431 [mEh]      -0.00011566 [kcal/mol]      -0.00048390 [kJ/mol]
      Disp20 (OS)                  -0.00018431 [mEh]      -0.00011566 [kcal/mol]      -0.00048390 [kJ/mol]
      Exch-Disp20 (SS)              0.00000000 [mEh]       0.00000000 [kcal/mol]       0.00000000 [kJ/mol]
      Exch-Disp20 (OS)              0.00000000 [mEh]       0.00000000 [kcal/mol]       0.00000000 [kJ/mol]

  Total HF                          0.07657252 [mEh]       0.04804998 [kcal/mol]       0.20104114 [kJ/mol]
  Total SAPT0                       0.07620391 [mEh]       0.04781867 [kcal/mol]       0.20007333 [kJ/mol]

  Special recipe for scaled SAPT0 (see Manual):
    Electrostatics sSAPT0           0.07670300 [mEh]       0.04813186 [kcal/mol]       0.20138370 [kJ/mol]
    Exchange sSAPT0                 0.00000000 [mEh]       0.00000000 [kcal/mol]       0.00000000 [kJ/mol]
    Induction sSAPT0               -0.00013048 [mEh]      -0.00008187 [kcal/mol]      -0.00034256 [kJ/mol]
    Dispersion sSAPT0              -0.00036862 [mEh]      -0.00023131 [kcal/mol]      -0.00096780 [kJ/mol]
  Total sSAPT0                      0.07620391 [mEh]       0.04781867 [kcal/mol]       0.20007333 [kJ/mol]
  --------------------------------------------------------------------------------------------------------

*** Psi4 exiting successfully. Buy a developer a beer!
