                               Psi4 1.4rc3

  ==> Input File <==

--------------------------------------------------------------------------
# PSI4 file produced by CrystaLattE

# Generated from:               imidazole.xyz
# Psithon input for N-mer:      2mer-0+216
# Number of atoms per monomer:  [9, 9]
# Number of replicas:           1
# COM priority:                 5.228173765831e-05
# Minimum COM separations:      14.152
# Separation priority:          1.022650643063e-04
# Minimum monomer separations:  11.316
# Cutoff priority:              4.782295351699e-06
# Nuclear repulsion energy:     376.6442909656638

memory 7 GB

molecule Dimer_0_216 {
  N           -4.29309621      -3.06837431       5.30516231
  N           -2.15847371      -2.92627296       1.72037448
  H           -0.02545587      -6.35903575       2.22046452
  H           -2.68566968      -6.53260241       6.61445954
  H           -4.74388423      -0.00609006       2.75615968
  H           -1.41045540      -2.24723147       0.00000000
  C           -1.43737991      -5.07504848       2.94065891
  C           -2.76900782      -5.14609916       5.13522880
  C           -3.85955036      -1.77728198       3.21093411
--
  N           -8.33026296      -6.17836402      27.67488576
  N          -10.46488546      -6.32046538      31.25967360
  H          -12.59790331      -2.88770259      30.75958356
  H           -9.93768949      -2.71413593      26.36558854
  H           -7.87947495      -9.24064828      30.22388840
  H          -11.21290377      -6.99950687      32.98004808
  C          -11.18597926      -4.17168985      30.03938916
  C           -9.85435135      -4.10063917      27.84481927
  C           -8.76380882      -7.46945636      29.76911396
units = au
no_com
no_reorient
}

set {
  e_convergence 10
  d_convergence 10
  scf_type df
  mp2_type df
  cc_type df
  freeze_core true
}

energy('sapt0/aug-cc-pvdz')

--------------------------------------------------------------------------

  //              Dimer HF             //
    Molecular point group: c1
  Charge       = 0
  Multiplicity = 1
  Basis Set: AUG-CC-PVDZ
    Blend: AUG-CC-PVDZ
  Basis Set: (AUG-CC-PVDZ AUX)
    Blend: AUG-CC-PVDZ-JKFIT
  @DF-RHF Final Energy:  -449.68720134945067
    Total Energy =                       -449.6872013494506746
  //            Monomer A HF           //
    Molecular point group: c1
  Multiplicity = 1
  Basis Set: AUG-CC-PVDZ
    Blend: AUG-CC-PVDZ
  Basis Set: (AUG-CC-PVDZ AUX)
    Blend: AUG-CC-PVDZ-JKFIT
  @DF-RHF Final Energy:  -224.84369631290303
    Total Energy =                       -224.8436963129030346
  //            Monomer B HF           //
    Molecular point group: c1

    Geometry (in Bohr), charge = 0, multiplicity = 1:

       Center              X                  Y                   Z               Mass
    ------------   -----------------  -----------------  -----------------  -----------------
      Gh(N)          -4.293096210000    -3.068374310000     5.305162310000    14.003074004430
      Gh(N)          -2.158473710000    -2.926272960000     1.720374480000    14.003074004430
      Gh(H)          -0.025455870000    -6.359035750000     2.220464520000     1.007825032230
      Gh(H)          -2.685669680000    -6.532602410000     6.614459540000     1.007825032230
      Gh(H)          -4.743884230000    -0.006090060000     2.756159680000     1.007825032230
      Gh(H)          -1.410455400000    -2.247231470000     0.000000000000     1.007825032230
      Gh(C)          -1.437379910000    -5.075048480000     2.940658910000    12.000000000000
      Gh(C)          -2.769007820000    -5.146099160000     5.135228800000    12.000000000000
      Gh(C)          -3.859550360000    -1.777281980000     3.210934110000    12.000000000000
         N           -8.330262960000    -6.178364020000    27.674885760000    14.003074004430
         N          -10.464885460000    -6.320465380000    31.259673600000    14.003074004430
         H          -12.597903310000    -2.887702590000    30.759583560000     1.007825032230
         H           -9.937689490000    -2.714135930000    26.365588540000     1.007825032230
         H           -7.879474950000    -9.240648280000    30.223888400000     1.007825032230
         H          -11.212903770000    -6.999506870000    32.980048080000     1.007825032230
         C          -11.185979260000    -4.171689850000    30.039389160000    12.000000000000
         C           -9.854351350000    -4.100639170000    27.844819270000    12.000000000000
         C           -8.763808820000    -7.469456360000    29.769113960000    12.000000000000

  Charge       = 0
  Multiplicity = 1
  Basis Set: AUG-CC-PVDZ
    Blend: AUG-CC-PVDZ
  Basis Set: (AUG-CC-PVDZ AUX)
    Blend: AUG-CC-PVDZ-JKFIT

    Orbital Energies [Eh]
    ---------------------

    Doubly Occupied:

       1A    -15.637071     2A    -15.551216     3A    -11.300916
       4A    -11.263160     5A    -11.245653     6A     -1.352867
       7A     -1.169098     8A     -1.012098     9A     -0.824390
      10A     -0.803731    11A     -0.760666    12A     -0.610096
      13A     -0.603958    14A     -0.601922    15A     -0.570942
      16A     -0.435483    17A     -0.400464    18A     -0.320685

  @DF-RHF Final Energy:  -224.84369631272671

   => Energetics <=

    Nuclear Repulsion Energy =            164.0866957940638144
    One-Electron Energy =                -628.9319562851228511
    Two-Electron Energy =                 240.0015641783323304
    Total Energy =                       -224.8436963127267063

  Dipole Moment: [D]
     X:    -2.0431      Y:    -0.4150      Z:     3.3867     Total:     3.9769

    SAPT Results
  --------------------------------------------------------------------------------------------------------
    Electrostatics                  0.19254759 [mEh]       0.12082543 [kcal/mol]       0.50553362 [kJ/mol]
      Elst10,r                      0.19254759 [mEh]       0.12082543 [kcal/mol]       0.50553362 [kJ/mol]

    Exchange                        0.00000007 [mEh]       0.00000005 [kcal/mol]       0.00000019 [kJ/mol]
      Exch10                        0.00000007 [mEh]       0.00000005 [kcal/mol]       0.00000019 [kJ/mol]
      Exch10(S^2)                   0.00000007 [mEh]       0.00000005 [kcal/mol]       0.00000019 [kJ/mol]

    Induction                      -0.00127148 [mEh]      -0.00079787 [kcal/mol]      -0.00333827 [kJ/mol]
      Ind20,r                      -0.00132563 [mEh]      -0.00083184 [kcal/mol]      -0.00348044 [kJ/mol]
      Exch-Ind20,r                  0.00000013 [mEh]       0.00000008 [kcal/mol]       0.00000034 [kJ/mol]
      delta HF,r (2)                0.00005402 [mEh]       0.00003390 [kcal/mol]       0.00014183 [kJ/mol]

    Dispersion                     -0.00421497 [mEh]      -0.00264493 [kcal/mol]      -0.01106639 [kJ/mol]
      Disp20                       -0.00421497 [mEh]      -0.00264494 [kcal/mol]      -0.01106641 [kJ/mol]
      Exch-Disp20                   0.00000001 [mEh]       0.00000000 [kcal/mol]       0.00000002 [kJ/mol]
      Disp20 (SS)                  -0.00210749 [mEh]      -0.00132247 [kcal/mol]      -0.00553320 [kJ/mol]
      Disp20 (OS)                  -0.00210749 [mEh]      -0.00132247 [kcal/mol]      -0.00553320 [kJ/mol]
      Exch-Disp20 (SS)              0.00000000 [mEh]       0.00000000 [kcal/mol]       0.00000001 [kJ/mol]
      Exch-Disp20 (OS)              0.00000000 [mEh]       0.00000000 [kcal/mol]       0.00000000 [kJ/mol]

  Total HF                          0.19127618 [mEh]       0.12002761 [kcal/mol]       0.50219554 [kJ/mol]
  Total SAPT0                       0.18706121 [mEh]       0.11738268 [kcal/mol]       0.49112914 [kJ/mol]

  Special recipe for scaled SAPT0 (see Manual):
    Electrostatics sSAPT0           0.19254759 [mEh]       0.12082543 [kcal/mol]       0.50553362 [kJ/mol]
    Exchange sSAPT0                 0.00000007 [mEh]       0.00000005 [kcal/mol]       0.00000019 [kJ/mol]
    Induction sSAPT0               -0.00127148 [mEh]      -0.00079787 [kcal/mol]      -0.00333827 [kJ/mol]
    Dispersion sSAPT0              -0.00421497 [mEh]      -0.00264493 [kcal/mol]      -0.01106639 [kJ/mol]
  Total sSAPT0                      0.18706121 [mEh]       0.11738268 [kcal/mol]       0.49112914 [kJ/mol]
  --------------------------------------------------------------------------------------------------------

*** Psi4 exiting successfully. Buy a developer a beer!
