                               Psi4 1.4rc3

  ==> Input File <==

--------------------------------------------------------------------------
# PSI4 file produced by CrystaLattE

# Generated from:               imidazole.xyz
# Psithon input for N-mer:      2mer-0+454
# Number of atoms per monomer:  [9, 9]
# Number of replicas:           2
# COM priority:                 1.252979419533e-05
# Minimum COM separations:      22.783
# Separation priority:          2.221235766613e-05
# Minimum monomer separations:  18.825
# Cutoff priority:              6.243951828950e-07
# Nuclear repulsion energy:     358.3169014257366

memory 7 GB

molecule Dimer_0_454 {
  N           -4.29309621      -3.06837431       5.30516231
  N           -2.15847371      -2.92627296       1.72037448
  H           -0.02545587      -6.35903575       2.22046452
  H           -2.68566968      -6.53260241       6.61445954
  H           -4.74388423      -0.00609006       2.75615968
  H           -1.41045540      -2.24723147       0.00000000
  C           -1.43737991      -5.07504848       2.94065891
  C           -2.76900782      -5.14609916       5.13522880
  C           -3.85955036      -1.77728198       3.21093411
--
  N          -18.62137764      37.53201355       5.30516231
  N          -16.48675514      37.67411491       1.72037448
  H          -14.35373730      34.24135211       2.22046452
  H          -17.01395111      34.06778545       6.61445954
  H          -19.07216565      40.59429780       2.75615968
  H          -15.73873683      38.35315639       0.00000000
  C          -15.76566134      35.52533938       2.94065891
  C          -17.09728925      35.45428870       5.13522880
  C          -18.18783179      38.82310588       3.21093411
units = au
no_com
no_reorient
}

set {
  e_convergence 10
  d_convergence 10
  scf_type df
  mp2_type df
  cc_type df
  freeze_core true
}

energy('sapt0/aug-cc-pvdz')

--------------------------------------------------------------------------

  //              Dimer HF             //
    Molecular point group: c1
  Charge       = 0
  Multiplicity = 1
  Basis Set: AUG-CC-PVDZ
    Blend: AUG-CC-PVDZ
  Basis Set: (AUG-CC-PVDZ AUX)
    Blend: AUG-CC-PVDZ-JKFIT
  @DF-RHF Final Energy:  -449.68736282205225
    Total Energy =                       -449.6873628220522505
  //            Monomer A HF           //
    Molecular point group: c1
  Multiplicity = 1
  Basis Set: AUG-CC-PVDZ
    Blend: AUG-CC-PVDZ
  Basis Set: (AUG-CC-PVDZ AUX)
    Blend: AUG-CC-PVDZ-JKFIT
  @DF-RHF Final Energy:  -224.84369627771991
    Total Energy =                       -224.8436962777199142
  //            Monomer B HF           //
    Molecular point group: c1

    Geometry (in Bohr), charge = 0, multiplicity = 1:

       Center              X                  Y                   Z               Mass
    ------------   -----------------  -----------------  -----------------  -----------------
      Gh(N)          -4.293096210000    -3.068374310000     5.305162310000    14.003074004430
      Gh(N)          -2.158473710000    -2.926272960000     1.720374480000    14.003074004430
      Gh(H)          -0.025455870000    -6.359035750000     2.220464520000     1.007825032230
      Gh(H)          -2.685669680000    -6.532602410000     6.614459540000     1.007825032230
      Gh(H)          -4.743884230000    -0.006090060000     2.756159680000     1.007825032230
      Gh(H)          -1.410455400000    -2.247231470000     0.000000000000     1.007825032230
      Gh(C)          -1.437379910000    -5.075048480000     2.940658910000    12.000000000000
      Gh(C)          -2.769007820000    -5.146099160000     5.135228800000    12.000000000000
      Gh(C)          -3.859550360000    -1.777281980000     3.210934110000    12.000000000000
         N          -18.621377640000    37.532013550000     5.305162310000    14.003074004430
         N          -16.486755140000    37.674114910000     1.720374480000    14.003074004430
         H          -14.353737300000    34.241352110000     2.220464520000     1.007825032230
         H          -17.013951110000    34.067785450000     6.614459540000     1.007825032230
         H          -19.072165650000    40.594297800000     2.756159680000     1.007825032230
         H          -15.738736830000    38.353156390000     0.000000000000     1.007825032230
         C          -15.765661340000    35.525339380000     2.940658910000    12.000000000000
         C          -17.097289250000    35.454288700000     5.135228800000    12.000000000000
         C          -18.187831790000    38.823105880000     3.210934110000    12.000000000000

  Charge       = 0
  Multiplicity = 1
  Basis Set: AUG-CC-PVDZ
    Blend: AUG-CC-PVDZ
  Basis Set: (AUG-CC-PVDZ AUX)
    Blend: AUG-CC-PVDZ-JKFIT

    Orbital Energies [Eh]
    ---------------------

    Doubly Occupied:

       1A    -15.637071     2A    -15.551216     3A    -11.300916
       4A    -11.263160     5A    -11.245653     6A     -1.352867
       7A     -1.169098     8A     -1.012098     9A     -0.824390
      10A     -0.803731    11A     -0.760666    12A     -0.610096
      13A     -0.603958    14A     -0.601922    15A     -0.570942
      16A     -0.435483    17A     -0.400464    18A     -0.320685

  @DF-RHF Final Energy:  -224.84369627818020

   => Energetics <=

    Nuclear Repulsion Energy =            164.0866959723995819
    One-Electron Energy =                -628.9319562541946880
    Two-Electron Energy =                 240.0015640036149023
    Total Energy =                       -224.8436962781802038

  Dipole Moment: [D]
     X:     2.0431      Y:     0.4150      Z:    -3.3867     Total:     3.9769

    SAPT Results
  --------------------------------------------------------------------------------------------------------
    Electrostatics                  0.02975150 [mEh]       0.01866935 [kcal/mol]       0.07811255 [kJ/mol]
      Elst10,r                      0.02975150 [mEh]       0.01866935 [kcal/mol]       0.07811255 [kJ/mol]

    Exchange                        0.00000000 [mEh]       0.00000000 [kcal/mol]       0.00000000 [kJ/mol]
      Exch10                        0.00000000 [mEh]       0.00000000 [kcal/mol]       0.00000000 [kJ/mol]
      Exch10(S^2)                   0.00000000 [mEh]       0.00000000 [kcal/mol]       0.00000000 [kJ/mol]

    Induction                      -0.00001765 [mEh]      -0.00001108 [kcal/mol]      -0.00004635 [kJ/mol]
      Ind20,r                      -0.00002221 [mEh]      -0.00001394 [kcal/mol]      -0.00005832 [kJ/mol]
      Exch-Ind20,r                  0.00000000 [mEh]       0.00000000 [kcal/mol]       0.00000000 [kJ/mol]
      delta HF,r (2)                0.00000456 [mEh]       0.00000286 [kcal/mol]       0.00001197 [kJ/mol]

    Dispersion                     -0.00022013 [mEh]      -0.00013813 [kcal/mol]      -0.00057794 [kJ/mol]
      Disp20                       -0.00022013 [mEh]      -0.00013813 [kcal/mol]      -0.00057794 [kJ/mol]
      Exch-Disp20                   0.00000000 [mEh]       0.00000000 [kcal/mol]       0.00000000 [kJ/mol]
      Disp20 (SS)                  -0.00011006 [mEh]      -0.00006907 [kcal/mol]      -0.00028897 [kJ/mol]
      Disp20 (OS)                  -0.00011006 [mEh]      -0.00006907 [kcal/mol]      -0.00028897 [kJ/mol]
      Exch-Disp20 (SS)              0.00000000 [mEh]       0.00000000 [kcal/mol]       0.00000000 [kJ/mol]
      Exch-Disp20 (OS)              0.00000000 [mEh]       0.00000000 [kcal/mol]       0.00000000 [kJ/mol]

  Total HF                          0.02973385 [mEh]       0.01865827 [kcal/mol]       0.07806621 [kJ/mol]
  Total SAPT0                       0.02951372 [mEh]       0.01852014 [kcal/mol]       0.07748827 [kJ/mol]

  Special recipe for scaled SAPT0 (see Manual):
    Electrostatics sSAPT0           0.02975150 [mEh]       0.01866935 [kcal/mol]       0.07811255 [kJ/mol]
    Exchange sSAPT0                 0.00000000 [mEh]       0.00000000 [kcal/mol]       0.00000000 [kJ/mol]
    Induction sSAPT0               -0.00001765 [mEh]      -0.00001108 [kcal/mol]      -0.00004635 [kJ/mol]
    Dispersion sSAPT0              -0.00022013 [mEh]      -0.00013813 [kcal/mol]      -0.00057794 [kJ/mol]
  Total sSAPT0                      0.02951372 [mEh]       0.01852014 [kcal/mol]       0.07748827 [kJ/mol]
  --------------------------------------------------------------------------------------------------------

*** Psi4 exiting successfully. Buy a developer a beer!
