                               Psi4 1.4rc3

  ==> Input File <==

--------------------------------------------------------------------------
# PSI4 file produced by CrystaLattE

# Generated from:               imidazole.xyz
# Psithon input for N-mer:      2mer-0+491
# Number of atoms per monomer:  [9, 9]
# Number of replicas:           2
# COM priority:                 1.330193944469e-05
# Minimum COM separations:      22.334
# Separation priority:          2.053624047878e-05
# Minimum monomer separations:  19.324
# Cutoff priority:              5.623774804414e-07
# Nuclear repulsion energy:     358.9165919225426

memory 7 GB

molecule Dimer_0_491 {
  N           -4.29309621      -3.06837431       5.30516231
  N           -2.15847371      -2.92627296       1.72037448
  H           -0.02545587      -6.35903575       2.22046452
  H           -2.68566968      -6.53260241       6.61445954
  H           -4.74388423      -0.00609006       2.75615968
  H           -1.41045540      -2.24723147       0.00000000
  C           -1.43737991      -5.07504848       2.94065891
  C           -2.76900782      -5.14609916       5.13522880
  C           -3.85955036      -1.77728198       3.21093411
--
  N           13.63564756     -23.36856824     -27.06312513
  N           15.77027007     -23.22646689     -30.64791297
  H           17.90328791     -26.65922968     -30.14782292
  H           15.24307410     -26.83279634     -25.75382790
  H           13.18485955     -20.30628399     -29.61212777
  H           16.51828837     -22.54742540     -32.36828744
  C           16.49136386     -25.37524241     -29.42762853
  C           15.15973596     -25.44629309     -27.23305864
  C           14.06919342     -22.07747591     -29.15735333
units = au
no_com
no_reorient
}

set {
  e_convergence 10
  d_convergence 10
  scf_type df
  mp2_type df
  cc_type df
  freeze_core true
}

energy('sapt0/aug-cc-pvdz')

--------------------------------------------------------------------------

  //              Dimer HF             //
    Molecular point group: c1
  Charge       = 0
  Multiplicity = 1
  Basis Set: AUG-CC-PVDZ
    Blend: AUG-CC-PVDZ
  Basis Set: (AUG-CC-PVDZ AUX)
    Blend: AUG-CC-PVDZ-JKFIT
  @DF-RHF Final Energy:  -449.68742618539898
    Total Energy =                       -449.6874261853989765
  //            Monomer A HF           //
    Molecular point group: c1
  Multiplicity = 1
  Basis Set: AUG-CC-PVDZ
    Blend: AUG-CC-PVDZ
  Basis Set: (AUG-CC-PVDZ AUX)
    Blend: AUG-CC-PVDZ-JKFIT
  @DF-RHF Final Energy:  -224.84369627688861
    Total Energy =                       -224.8436962768886076
  //            Monomer B HF           //
    Molecular point group: c1

    Geometry (in Bohr), charge = 0, multiplicity = 1:

       Center              X                  Y                   Z               Mass
    ------------   -----------------  -----------------  -----------------  -----------------
      Gh(N)          -4.293096210000    -3.068374310000     5.305162310000    14.003074004430
      Gh(N)          -2.158473710000    -2.926272960000     1.720374480000    14.003074004430
      Gh(H)          -0.025455870000    -6.359035750000     2.220464520000     1.007825032230
      Gh(H)          -2.685669680000    -6.532602410000     6.614459540000     1.007825032230
      Gh(H)          -4.743884230000    -0.006090060000     2.756159680000     1.007825032230
      Gh(H)          -1.410455400000    -2.247231470000     0.000000000000     1.007825032230
      Gh(C)          -1.437379910000    -5.075048480000     2.940658910000    12.000000000000
      Gh(C)          -2.769007820000    -5.146099160000     5.135228800000    12.000000000000
      Gh(C)          -3.859550360000    -1.777281980000     3.210934110000    12.000000000000
         N           13.635647560000   -23.368568240000   -27.063125130000    14.003074004430
         N           15.770270070000   -23.226466890000   -30.647912970000    14.003074004430
         H           17.903287910000   -26.659229680000   -30.147822920000     1.007825032230
         H           15.243074100000   -26.832796340000   -25.753827900000     1.007825032230
         H           13.184859550000   -20.306283990000   -29.612127770000     1.007825032230
         H           16.518288370000   -22.547425400000   -32.368287440000     1.007825032230
         C           16.491363860000   -25.375242410000   -29.427628530000    12.000000000000
         C           15.159735960000   -25.446293090000   -27.233058640000    12.000000000000
         C           14.069193420000   -22.077475910000   -29.157353330000    12.000000000000

  Charge       = 0
  Multiplicity = 1
  Basis Set: AUG-CC-PVDZ
    Blend: AUG-CC-PVDZ
  Basis Set: (AUG-CC-PVDZ AUX)
    Blend: AUG-CC-PVDZ-JKFIT

    Orbital Energies [Eh]
    ---------------------

    Doubly Occupied:

       1A    -15.637071     2A    -15.551216     3A    -11.300916
       4A    -11.263160     5A    -11.245653     6A     -1.352867
       7A     -1.169098     8A     -1.012098     9A     -0.824390
      10A     -0.803731    11A     -0.760666    12A     -0.610096
      13A     -0.603958    14A     -0.601922    15A     -0.570942
      16A     -0.435483    17A     -0.400464    18A     -0.320685

  @DF-RHF Final Energy:  -224.84369627863873

   => Energetics <=

    Nuclear Repulsion Energy =            164.0866958820110142
    One-Electron Energy =                -628.9319560709776624
    Two-Electron Energy =                 240.0015639103279455
    Total Energy =                       -224.8436962786387312

  Dipole Moment: [D]
     X:     2.0431      Y:     0.4150      Z:    -3.3867     Total:     3.9769

    SAPT Results
  --------------------------------------------------------------------------------------------------------
    Electrostatics                 -0.03356482 [mEh]      -0.02106224 [kcal/mol]      -0.08812441 [kJ/mol]
      Elst10,r                     -0.03356482 [mEh]      -0.02106224 [kcal/mol]      -0.08812441 [kJ/mol]

    Exchange                        0.00000000 [mEh]       0.00000000 [kcal/mol]       0.00000000 [kJ/mol]
      Exch10                        0.00000000 [mEh]       0.00000000 [kcal/mol]       0.00000000 [kJ/mol]
      Exch10(S^2)                   0.00000000 [mEh]       0.00000000 [kcal/mol]       0.00000000 [kJ/mol]

    Induction                      -0.00006506 [mEh]      -0.00004082 [kcal/mol]      -0.00017081 [kJ/mol]
      Ind20,r                      -0.00006990 [mEh]      -0.00004386 [kcal/mol]      -0.00018352 [kJ/mol]
      Exch-Ind20,r                  0.00000000 [mEh]       0.00000000 [kcal/mol]       0.00000000 [kJ/mol]
      delta HF,r (2)                0.00000484 [mEh]       0.00000304 [kcal/mol]       0.00001272 [kJ/mol]

    Dispersion                     -0.00024396 [mEh]      -0.00015309 [kcal/mol]      -0.00064051 [kJ/mol]
      Disp20                       -0.00024396 [mEh]      -0.00015309 [kcal/mol]      -0.00064051 [kJ/mol]
      Exch-Disp20                   0.00000000 [mEh]       0.00000000 [kcal/mol]       0.00000000 [kJ/mol]
      Disp20 (SS)                  -0.00012198 [mEh]      -0.00007654 [kcal/mol]      -0.00032025 [kJ/mol]
      Disp20 (OS)                  -0.00012198 [mEh]      -0.00007654 [kcal/mol]      -0.00032025 [kJ/mol]
      Exch-Disp20 (SS)              0.00000000 [mEh]       0.00000000 [kcal/mol]       0.00000000 [kJ/mol]
      Exch-Disp20 (OS)              0.00000000 [mEh]       0.00000000 [kcal/mol]       0.00000000 [kJ/mol]

  Total HF                         -0.03362987 [mEh]      -0.02110306 [kcal/mol]      -0.08829522 [kJ/mol]
  Total SAPT0                      -0.03387383 [mEh]      -0.02125615 [kcal/mol]      -0.08893573 [kJ/mol]

  Special recipe for scaled SAPT0 (see Manual):
    Electrostatics sSAPT0          -0.03356482 [mEh]      -0.02106224 [kcal/mol]      -0.08812441 [kJ/mol]
    Exchange sSAPT0                 0.00000000 [mEh]       0.00000000 [kcal/mol]       0.00000000 [kJ/mol]
    Induction sSAPT0               -0.00006506 [mEh]      -0.00004082 [kcal/mol]      -0.00017081 [kJ/mol]
    Dispersion sSAPT0              -0.00024396 [mEh]      -0.00015309 [kcal/mol]      -0.00064051 [kJ/mol]
  Total sSAPT0                     -0.03387383 [mEh]      -0.02125615 [kcal/mol]      -0.08893573 [kJ/mol]
  --------------------------------------------------------------------------------------------------------

*** Psi4 exiting successfully. Buy a developer a beer!
