                               Psi4 1.4rc3

  ==> Input File <==

--------------------------------------------------------------------------
# PSI4 file produced by CrystaLattE

# Generated from:               imidazole.xyz
# Psithon input for N-mer:      2mer-0+422
# Number of atoms per monomer:  [9, 9]
# Number of replicas:           2
# COM priority:                 1.683569332757e-05
# Minimum COM separations:      20.647
# Separation priority:          1.887705588095e-05
# Minimum monomer separations:  19.874
# Cutoff priority:              5.026268469030e-07
# Nuclear repulsion energy:     361.2723173493174

memory 7 GB

molecule Dimer_0_422 {
  N           -4.29309621      -3.06837431       5.30516231
  N           -2.15847371      -2.92627296       1.72037448
  H           -0.02545587      -6.35903575       2.22046452
  H           -2.68566968      -6.53260241       6.61445954
  H           -4.74388423      -0.00609006       2.75615968
  H           -1.41045540      -2.24723147       0.00000000
  C           -1.43737991      -5.07504848       2.94065891
  C           -2.76900782      -5.14609916       5.13522880
  C           -3.85955036      -1.77728198       3.21093411
--
  N           29.72737619       7.08172265      21.48930603
  N           31.86199869       7.22382401      17.90451820
  H           33.99501653       3.79106122      18.40460824
  H           31.33480272       3.61749456      22.79860326
  H           29.27658817      10.14400691      18.94030340
  H           32.61001699       7.90286550      16.18414372
  C           32.58309248       5.07504848      19.12480264
  C           31.25146458       5.00399780      21.31937252
  C           30.16092204       8.37281499      19.39507784
units = au
no_com
no_reorient
}

set {
  e_convergence 10
  d_convergence 10
  scf_type df
  mp2_type df
  cc_type df
  freeze_core true
}

energy('sapt0/aug-cc-pvdz')

--------------------------------------------------------------------------

  //              Dimer HF             //
    Molecular point group: c1
  Charge       = 0
  Multiplicity = 1
  Basis Set: AUG-CC-PVDZ
    Blend: AUG-CC-PVDZ
  Basis Set: (AUG-CC-PVDZ AUX)
    Blend: AUG-CC-PVDZ-JKFIT
  @DF-RHF Final Energy:  -449.68735318349059
    Total Energy =                       -449.6873531834905862
  //            Monomer A HF           //
    Molecular point group: c1
  Multiplicity = 1
  Basis Set: AUG-CC-PVDZ
    Blend: AUG-CC-PVDZ
  Basis Set: (AUG-CC-PVDZ AUX)
    Blend: AUG-CC-PVDZ-JKFIT
  @DF-RHF Final Energy:  -224.84369627765716
    Total Energy =                       -224.8436962776571590
  //            Monomer B HF           //
    Molecular point group: c1

    Geometry (in Bohr), charge = 0, multiplicity = 1:

       Center              X                  Y                   Z               Mass
    ------------   -----------------  -----------------  -----------------  -----------------
      Gh(N)          -4.293096210000    -3.068374310000     5.305162310000    14.003074004430
      Gh(N)          -2.158473710000    -2.926272960000     1.720374480000    14.003074004430
      Gh(H)          -0.025455870000    -6.359035750000     2.220464520000     1.007825032230
      Gh(H)          -2.685669680000    -6.532602410000     6.614459540000     1.007825032230
      Gh(H)          -4.743884230000    -0.006090060000     2.756159680000     1.007825032230
      Gh(H)          -1.410455400000    -2.247231470000     0.000000000000     1.007825032230
      Gh(C)          -1.437379910000    -5.075048480000     2.940658910000    12.000000000000
      Gh(C)          -2.769007820000    -5.146099160000     5.135228800000    12.000000000000
      Gh(C)          -3.859550360000    -1.777281980000     3.210934110000    12.000000000000
         N           29.727376190000     7.081722650000    21.489306030000    14.003074004430
         N           31.861998690000     7.223824010000    17.904518200000    14.003074004430
         H           33.995016530000     3.791061220000    18.404608240000     1.007825032230
         H           31.334802720000     3.617494560000    22.798603260000     1.007825032230
         H           29.276588170000    10.144006910000    18.940303400000     1.007825032230
         H           32.610016990000     7.902865500000    16.184143720000     1.007825032230
         C           32.583092480000     5.075048480000    19.124802640000    12.000000000000
         C           31.251464580000     5.003997800000    21.319372520000    12.000000000000
         C           30.160922040000     8.372814990000    19.395077840000    12.000000000000

  Charge       = 0
  Multiplicity = 1
  Basis Set: AUG-CC-PVDZ
    Blend: AUG-CC-PVDZ
  Basis Set: (AUG-CC-PVDZ AUX)
    Blend: AUG-CC-PVDZ-JKFIT

    Orbital Energies [Eh]
    ---------------------

    Doubly Occupied:

       1A    -15.637071     2A    -15.551216     3A    -11.300916
       4A    -11.263160     5A    -11.245653     6A     -1.352867
       7A     -1.169098     8A     -1.012098     9A     -0.824390
      10A     -0.803731    11A     -0.760666    12A     -0.610096
      13A     -0.603958    14A     -0.601922    15A     -0.570942
      16A     -0.435483    17A     -0.400464    18A     -0.320685

  @DF-RHF Final Energy:  -224.84369627868273

   => Energetics <=

    Nuclear Repulsion Energy =            164.0866959980482704
    One-Electron Energy =                -628.9319563154463140
    Two-Electron Energy =                 240.0015640387152871
    Total Energy =                       -224.8436962786827280

  Dipole Moment: [D]
     X:     2.0431      Y:     0.4150      Z:    -3.3867     Total:     3.9769

    SAPT Results
  --------------------------------------------------------------------------------------------------------
    Electrostatics                  0.03940016 [mEh]       0.02472397 [kcal/mol]       0.10344510 [kJ/mol]
      Elst10,r                      0.03940016 [mEh]       0.02472397 [kcal/mol]       0.10344510 [kJ/mol]

    Exchange                        0.00000000 [mEh]       0.00000000 [kcal/mol]       0.00000000 [kJ/mol]
      Exch10                        0.00000000 [mEh]       0.00000000 [kcal/mol]       0.00000000 [kJ/mol]
      Exch10(S^2)                   0.00000000 [mEh]       0.00000000 [kcal/mol]       0.00000000 [kJ/mol]

    Induction                      -0.00002731 [mEh]      -0.00001714 [kcal/mol]      -0.00007170 [kJ/mol]
      Ind20,r                      -0.00003718 [mEh]      -0.00002333 [kcal/mol]      -0.00009761 [kJ/mol]
      Exch-Ind20,r                  0.00000000 [mEh]       0.00000000 [kcal/mol]       0.00000000 [kJ/mol]
      delta HF,r (2)                0.00000987 [mEh]       0.00000619 [kcal/mol]       0.00002591 [kJ/mol]

    Dispersion                     -0.00028975 [mEh]      -0.00018182 [kcal/mol]      -0.00076073 [kJ/mol]
      Disp20                       -0.00028975 [mEh]      -0.00018182 [kcal/mol]      -0.00076073 [kJ/mol]
      Exch-Disp20                   0.00000000 [mEh]       0.00000000 [kcal/mol]       0.00000000 [kJ/mol]
      Disp20 (SS)                  -0.00014487 [mEh]      -0.00009091 [kcal/mol]      -0.00038037 [kJ/mol]
      Disp20 (OS)                  -0.00014487 [mEh]      -0.00009091 [kcal/mol]      -0.00038037 [kJ/mol]
      Exch-Disp20 (SS)              0.00000000 [mEh]       0.00000000 [kcal/mol]       0.00000000 [kJ/mol]
      Exch-Disp20 (OS)              0.00000000 [mEh]       0.00000000 [kcal/mol]       0.00000000 [kJ/mol]

  Total HF                          0.03937285 [mEh]       0.02470684 [kcal/mol]       0.10337340 [kJ/mol]
  Total SAPT0                       0.03908310 [mEh]       0.02452502 [kcal/mol]       0.10261267 [kJ/mol]

  Special recipe for scaled SAPT0 (see Manual):
    Electrostatics sSAPT0           0.03940016 [mEh]       0.02472397 [kcal/mol]       0.10344510 [kJ/mol]
    Exchange sSAPT0                 0.00000000 [mEh]       0.00000000 [kcal/mol]       0.00000000 [kJ/mol]
    Induction sSAPT0               -0.00002731 [mEh]      -0.00001714 [kcal/mol]      -0.00007170 [kJ/mol]
    Dispersion sSAPT0              -0.00028975 [mEh]      -0.00018182 [kcal/mol]      -0.00076073 [kJ/mol]
  Total sSAPT0                      0.03908310 [mEh]       0.02452502 [kcal/mol]       0.10261267 [kJ/mol]
  --------------------------------------------------------------------------------------------------------

*** Psi4 exiting successfully. Buy a developer a beer!
