                               Psi4 1.4rc3

  ==> Input File <==

--------------------------------------------------------------------------
# PSI4 file produced by CrystaLattE

# Generated from:               imidazole.xyz
# Psithon input for N-mer:      2mer-0+24
# Number of atoms per monomer:  [9, 9]
# Number of replicas:           1
# COM priority:                 4.893943586152e-04
# Minimum COM separations:      6.715
# Separation priority:          8.425211044383e-04
# Minimum monomer separations:  5.603
# Cutoff priority:              7.957458539665e-05
# Nuclear repulsion energy:     428.09313427366976

memory 7 GB

molecule Dimer_0_24 {
  N           -4.29309621      -3.06837431       5.30516231
  N           -2.15847371      -2.92627296       1.72037448
  H           -0.02545587      -6.35903575       2.22046452
  H           -2.68566968      -6.53260241       6.61445954
  H           -4.74388423      -0.00609006       2.75615968
  H           -1.41045540      -2.24723147       0.00000000
  C           -1.43737991      -5.07504848       2.94065891
  C           -2.76900782      -5.14609916       5.13522880
  C           -3.85955036      -1.77728198       3.21093411
--
  N            0.63410893       3.97173294      11.49074204
  N           -1.50051357       3.82963158      15.07552988
  H           -3.63353142       7.26239438      14.57543984
  H           -0.97331761       7.43596104      10.18144482
  H            1.08489694       0.90944869      14.03974468
  H           -2.24853188       3.15059010      16.79590435
  C           -2.22160737       5.97840711      13.85524544
  C           -0.88997947       6.04945779      11.66067555
  C            0.20056307       2.68064061      13.58497024
units = au
no_com
no_reorient
}

set {
  e_convergence 10
  d_convergence 10
  scf_type df
  mp2_type df
  cc_type df
  freeze_core true
}

energy('sapt0/aug-cc-pvdz')

--------------------------------------------------------------------------

  //              Dimer HF             //
    Molecular point group: c1
  Charge       = 0
  Multiplicity = 1
  Basis Set: AUG-CC-PVDZ
    Blend: AUG-CC-PVDZ
  Basis Set: (AUG-CC-PVDZ AUX)
    Blend: AUG-CC-PVDZ-JKFIT
  @DF-RHF Final Energy:  -449.68714380420471
    Total Energy =                       -449.6871438042047657
  //            Monomer A HF           //
    Molecular point group: c1
  Multiplicity = 1
  Basis Set: AUG-CC-PVDZ
    Blend: AUG-CC-PVDZ
  Basis Set: (AUG-CC-PVDZ AUX)
    Blend: AUG-CC-PVDZ-JKFIT
  @DF-RHF Final Energy:  -224.84374885837144
    Total Energy =                       -224.8437488583714412
  //            Monomer B HF           //
    Molecular point group: c1

    Geometry (in Bohr), charge = 0, multiplicity = 1:

       Center              X                  Y                   Z               Mass
    ------------   -----------------  -----------------  -----------------  -----------------
      Gh(N)          -4.293096210000    -3.068374310000     5.305162310000    14.003074004430
      Gh(N)          -2.158473710000    -2.926272960000     1.720374480000    14.003074004430
      Gh(H)          -0.025455870000    -6.359035750000     2.220464520000     1.007825032230
      Gh(H)          -2.685669680000    -6.532602410000     6.614459540000     1.007825032230
      Gh(H)          -4.743884230000    -0.006090060000     2.756159680000     1.007825032230
      Gh(H)          -1.410455400000    -2.247231470000     0.000000000000     1.007825032230
      Gh(C)          -1.437379910000    -5.075048480000     2.940658910000    12.000000000000
      Gh(C)          -2.769007820000    -5.146099160000     5.135228800000    12.000000000000
      Gh(C)          -3.859550360000    -1.777281980000     3.210934110000    12.000000000000
         N            0.634108930000     3.971732940000    11.490742040000    14.003074004430
         N           -1.500513570000     3.829631580000    15.075529880000    14.003074004430
         H           -3.633531420000     7.262394380000    14.575439840000     1.007825032230
         H           -0.973317610000     7.435961040000    10.181444820000     1.007825032230
         H            1.084896940000     0.909448690000    14.039744680000     1.007825032230
         H           -2.248531880000     3.150590100000    16.795904350000     1.007825032230
         C           -2.221607370000     5.978407110000    13.855245440000    12.000000000000
         C           -0.889979470000     6.049457790000    11.660675550000    12.000000000000
         C            0.200563070000     2.680640610000    13.584970240000    12.000000000000

  Charge       = 0
  Multiplicity = 1
  Basis Set: AUG-CC-PVDZ
    Blend: AUG-CC-PVDZ
  Basis Set: (AUG-CC-PVDZ AUX)
    Blend: AUG-CC-PVDZ-JKFIT

    Orbital Energies [Eh]
    ---------------------

    Doubly Occupied:

       1A    -15.637093     2A    -15.551273     3A    -11.300927
       4A    -11.263166     5A    -11.245665     6A     -1.352881
       7A     -1.169117     8A     -1.012113     9A     -0.824403
      10A     -0.803747    11A     -0.760680    12A     -0.610111
      13A     -0.603967    14A     -0.601934    15A     -0.570963
      16A     -0.435511    17A     -0.400481    18A     -0.320696

  @DF-RHF Final Energy:  -224.84374885863988

   => Energetics <=

    Nuclear Repulsion Energy =            164.0866958967881715
    One-Electron Energy =                -628.9314309631439528
    Two-Electron Energy =                 240.0009862077158971
    Total Energy =                       -224.8437488586398842

  Dipole Moment: [D]
     X:    -2.0414      Y:    -0.4168      Z:     3.3839     Total:     3.9739

    SAPT Results
  --------------------------------------------------------------------------------------------------------
    Electrostatics                  0.40708633 [mEh]       0.25545053 [kcal/mol]       1.06880501 [kJ/mol]
      Elst10,r                      0.40708633 [mEh]       0.25545053 [kcal/mol]       1.06880501 [kJ/mol]

    Exchange                        0.00275674 [mEh]       0.00172988 [kcal/mol]       0.00723782 [kJ/mol]
      Exch10                        0.00275674 [mEh]       0.00172988 [kcal/mol]       0.00723782 [kJ/mol]
      Exch10(S^2)                   0.00275673 [mEh]       0.00172988 [kcal/mol]       0.00723781 [kJ/mol]

    Induction                      -0.05593026 [mEh]      -0.03509677 [kcal/mol]      -0.14684488 [kJ/mol]
      Ind20,r                      -0.05777614 [mEh]      -0.03625507 [kcal/mol]      -0.15169123 [kJ/mol]
      Exch-Ind20,r                  0.00063929 [mEh]       0.00040116 [kcal/mol]       0.00167846 [kJ/mol]
      delta HF,r (2)                0.00120658 [mEh]       0.00075714 [kcal/mol]       0.00316789 [kJ/mol]

    Dispersion                     -0.31112835 [mEh]      -0.19523599 [kcal/mol]      -0.81686737 [kJ/mol]
      Disp20                       -0.31202485 [mEh]      -0.19579855 [kcal/mol]      -0.81922113 [kJ/mol]
      Exch-Disp20                   0.00089650 [mEh]       0.00056256 [kcal/mol]       0.00235376 [kJ/mol]
      Disp20 (SS)                  -0.15601242 [mEh]      -0.09789927 [kcal/mol]      -0.40961056 [kJ/mol]
      Disp20 (OS)                  -0.15601242 [mEh]      -0.09789927 [kcal/mol]      -0.40961056 [kJ/mol]
      Exch-Disp20 (SS)              0.00064254 [mEh]       0.00040320 [kcal/mol]       0.00168698 [kJ/mol]
      Exch-Disp20 (OS)              0.00025396 [mEh]       0.00015936 [kcal/mol]       0.00066678 [kJ/mol]

  Total HF                          0.35391281 [mEh]       0.22208364 [kcal/mol]       0.92919795 [kJ/mol]
  Total SAPT0                       0.04278446 [mEh]       0.02684765 [kcal/mol]       0.11233058 [kJ/mol]

  Special recipe for scaled SAPT0 (see Manual):
    Electrostatics sSAPT0           0.40708633 [mEh]       0.25545053 [kcal/mol]       1.06880501 [kJ/mol]
    Exchange sSAPT0                 0.00275674 [mEh]       0.00172988 [kcal/mol]       0.00723782 [kJ/mol]
    Induction sSAPT0               -0.05593026 [mEh]      -0.03509677 [kcal/mol]      -0.14684488 [kJ/mol]
    Dispersion sSAPT0              -0.31112835 [mEh]      -0.19523599 [kcal/mol]      -0.81686737 [kJ/mol]
  Total sSAPT0                      0.04278446 [mEh]       0.02684765 [kcal/mol]       0.11233058 [kJ/mol]
  --------------------------------------------------------------------------------------------------------

*** Psi4 exiting successfully. Buy a developer a beer!
