                               Psi4 1.4rc3

  ==> Input File <==

--------------------------------------------------------------------------
# PSI4 file produced by CrystaLattE

# Generated from:               imidazole.xyz
# Psithon input for N-mer:      2mer-0+543
# Number of atoms per monomer:  [9, 9]
# Number of replicas:           1
# COM priority:                 1.884029813625e-05
# Minimum COM separations:      19.887
# Separation priority:          2.430736663271e-05
# Minimum monomer separations:  18.268
# Cutoff priority:              7.041262719783e-07
# Nuclear repulsion energy:     362.56868948004546

memory 7 GB

molecule Dimer_0_543 {
  N           -4.29309621      -3.06837431       5.30516231
  N           -2.15847371      -2.92627296       1.72037448
  H           -0.02545587      -6.35903575       2.22046452
  H           -2.68566968      -6.53260241       6.61445954
  H           -4.74388423      -0.00609006       2.75615968
  H           -1.41045540      -2.24723147       0.00000000
  C           -1.43737991      -5.07504848       2.94065891
  C           -2.76900782      -5.14609916       5.13522880
  C           -3.85955036      -1.77728198       3.21093411
--
  N          -19.05808204     -36.62865492      -4.69340168
  N          -21.19270454     -36.77075628      -1.10861384
  H          -23.32572239     -33.33799348      -1.60870389
  H          -20.66550857     -33.16442682      -6.00269891
  H          -18.60729403     -39.69093917      -2.14439904
  H          -21.94072285     -37.44979776       0.61176063
  C          -21.91379834     -34.62198075      -2.32889828
  C          -20.58217043     -34.55093007      -4.52346817
  C          -19.49162790     -37.91974725      -2.59917348
units = au
no_com
no_reorient
}

set {
  e_convergence 10
  d_convergence 10
  scf_type df
  mp2_type df
  cc_type df
  freeze_core true
}

energy('sapt0/aug-cc-pvdz')

--------------------------------------------------------------------------

  //              Dimer HF             //
    Molecular point group: c1
  Charge       = 0
  Multiplicity = 1
  Basis Set: AUG-CC-PVDZ
    Blend: AUG-CC-PVDZ
  Basis Set: (AUG-CC-PVDZ AUX)
    Blend: AUG-CC-PVDZ-JKFIT
  @DF-RHF Final Energy:  -449.68742454622162
    Total Energy =                       -449.6874245462215640
  //            Monomer A HF           //
    Molecular point group: c1
  Multiplicity = 1
  Basis Set: AUG-CC-PVDZ
    Blend: AUG-CC-PVDZ
  Basis Set: (AUG-CC-PVDZ AUX)
    Blend: AUG-CC-PVDZ-JKFIT
  @DF-RHF Final Energy:  -224.84369627854952
    Total Energy =                       -224.8436962785495155
  //            Monomer B HF           //
    Molecular point group: c1

    Geometry (in Bohr), charge = 0, multiplicity = 1:

       Center              X                  Y                   Z               Mass
    ------------   -----------------  -----------------  -----------------  -----------------
      Gh(N)          -4.293096210000    -3.068374310000     5.305162310000    14.003074004430
      Gh(N)          -2.158473710000    -2.926272960000     1.720374480000    14.003074004430
      Gh(H)          -0.025455870000    -6.359035750000     2.220464520000     1.007825032230
      Gh(H)          -2.685669680000    -6.532602410000     6.614459540000     1.007825032230
      Gh(H)          -4.743884230000    -0.006090060000     2.756159680000     1.007825032230
      Gh(H)          -1.410455400000    -2.247231470000     0.000000000000     1.007825032230
      Gh(C)          -1.437379910000    -5.075048480000     2.940658910000    12.000000000000
      Gh(C)          -2.769007820000    -5.146099160000     5.135228800000    12.000000000000
      Gh(C)          -3.859550360000    -1.777281980000     3.210934110000    12.000000000000
         N          -19.058082040000   -36.628654920000    -4.693401680000    14.003074004430
         N          -21.192704540000   -36.770756280000    -1.108613840000    14.003074004430
         H          -23.325722390000   -33.337993480000    -1.608703890000     1.007825032230
         H          -20.665508570000   -33.164426820000    -6.002698910000     1.007825032230
         H          -18.607294030000   -39.690939170000    -2.144399040000     1.007825032230
         H          -21.940722850000   -37.449797760000     0.611760630000     1.007825032230
         C          -21.913798340000   -34.621980750000    -2.328898280000    12.000000000000
         C          -20.582170430000   -34.550930070000    -4.523468170000    12.000000000000
         C          -19.491627900000   -37.919747250000    -2.599173480000    12.000000000000

  Charge       = 0
  Multiplicity = 1
  Basis Set: AUG-CC-PVDZ
    Blend: AUG-CC-PVDZ
  Basis Set: (AUG-CC-PVDZ AUX)
    Blend: AUG-CC-PVDZ-JKFIT

    Orbital Energies [Eh]
    ---------------------

    Doubly Occupied:

       1A    -15.637071     2A    -15.551216     3A    -11.300916
       4A    -11.263160     5A    -11.245653     6A     -1.352867
       7A     -1.169098     8A     -1.012098     9A     -0.824390
      10A     -0.803731    11A     -0.760666    12A     -0.610096
      13A     -0.603958    14A     -0.601922    15A     -0.570942
      16A     -0.435483    17A     -0.400464    18A     -0.320685

  @DF-RHF Final Energy:  -224.84369627898283

   => Energetics <=

    Nuclear Repulsion Energy =            164.0866958967185383
    One-Electron Energy =                -628.9319561045307410
    Two-Electron Energy =                 240.0015639288293698
    Total Energy =                       -224.8436962789828328

  Dipole Moment: [D]
     X:    -2.0431      Y:    -0.4150      Z:     3.3867     Total:     3.9769

    SAPT Results
  --------------------------------------------------------------------------------------------------------
    Electrostatics                 -0.03195245 [mEh]      -0.02005047 [kcal/mol]      -0.08389115 [kJ/mol]
      Elst10,r                     -0.03195245 [mEh]      -0.02005047 [kcal/mol]      -0.08389115 [kJ/mol]

    Exchange                        0.00000000 [mEh]       0.00000000 [kcal/mol]       0.00000000 [kJ/mol]
      Exch10                        0.00000000 [mEh]       0.00000000 [kcal/mol]       0.00000000 [kJ/mol]
      Exch10(S^2)                   0.00000000 [mEh]       0.00000000 [kcal/mol]       0.00000000 [kJ/mol]

    Induction                      -0.00003624 [mEh]      -0.00002274 [kcal/mol]      -0.00009514 [kJ/mol]
      Ind20,r                      -0.00004515 [mEh]      -0.00002833 [kcal/mol]      -0.00011854 [kJ/mol]
      Exch-Ind20,r                  0.00000000 [mEh]       0.00000000 [kcal/mol]       0.00000000 [kJ/mol]
      delta HF,r (2)                0.00000891 [mEh]       0.00000559 [kcal/mol]       0.00002340 [kJ/mol]

    Dispersion                     -0.00039398 [mEh]      -0.00024723 [kcal/mol]      -0.00103440 [kJ/mol]
      Disp20                       -0.00039398 [mEh]      -0.00024723 [kcal/mol]      -0.00103440 [kJ/mol]
      Exch-Disp20                   0.00000000 [mEh]       0.00000000 [kcal/mol]       0.00000000 [kJ/mol]
      Disp20 (SS)                  -0.00019699 [mEh]      -0.00012361 [kcal/mol]      -0.00051720 [kJ/mol]
      Disp20 (OS)                  -0.00019699 [mEh]      -0.00012361 [kcal/mol]      -0.00051720 [kJ/mol]
      Exch-Disp20 (SS)              0.00000000 [mEh]       0.00000000 [kcal/mol]       0.00000000 [kJ/mol]
      Exch-Disp20 (OS)              0.00000000 [mEh]       0.00000000 [kcal/mol]       0.00000000 [kJ/mol]

  Total HF                         -0.03198869 [mEh]      -0.02007321 [kcal/mol]      -0.08398629 [kJ/mol]
  Total SAPT0                      -0.03238267 [mEh]      -0.02032043 [kcal/mol]      -0.08502070 [kJ/mol]

  Special recipe for scaled SAPT0 (see Manual):
    Electrostatics sSAPT0          -0.03195245 [mEh]      -0.02005047 [kcal/mol]      -0.08389115 [kJ/mol]
    Exchange sSAPT0                 0.00000000 [mEh]       0.00000000 [kcal/mol]       0.00000000 [kJ/mol]
    Induction sSAPT0               -0.00003624 [mEh]      -0.00002274 [kcal/mol]      -0.00009514 [kJ/mol]
    Dispersion sSAPT0              -0.00039398 [mEh]      -0.00024723 [kcal/mol]      -0.00103440 [kJ/mol]
  Total sSAPT0                     -0.03238267 [mEh]      -0.02032043 [kcal/mol]      -0.08502070 [kJ/mol]
  --------------------------------------------------------------------------------------------------------

*** Psi4 exiting successfully. Buy a developer a beer!
