                               Psi4 1.4rc3

  ==> Input File <==

--------------------------------------------------------------------------
# PSI4 file produced by CrystaLattE

# Generated from:               imidazole.xyz
# Psithon input for N-mer:      2mer-0+191
# Number of atoms per monomer:  [9, 9]
# Number of replicas:           2
# COM priority:                 2.623803201504e-05
# Minimum COM separations:      17.808
# Separation priority:          3.994651962693e-05
# Minimum monomer separations:  15.480
# Cutoff priority:              1.365542630215e-06
# Nuclear repulsion energy:     366.60747328390227

memory 7 GB

molecule Dimer_0_191 {
  N           -4.29309621      -3.06837431       5.30516231
  N           -2.15847371      -2.92627296       1.72037448
  H           -0.02545587      -6.35903575       2.22046452
  H           -2.68566968      -6.53260241       6.61445954
  H           -4.74388423      -0.00609006       2.75615968
  H           -1.41045540      -2.24723147       0.00000000
  C           -1.43737991      -5.07504848       2.94065891
  C           -2.76900782      -5.14609916       5.13522880
  C           -3.85955036      -1.77728198       3.21093411
--
  N           10.03518522      27.38191658       5.30516231
  N           12.16980772      27.52401794       1.72037448
  H           14.30282556      24.09125515       2.22046452
  H           11.64261175      23.91768849       6.61445954
  H            9.58439720      30.44420084       2.75615968
  H           12.91782602      28.20305943       0.00000000
  C           12.89090152      25.37524241       2.94065891
  C           11.55927361      25.30419173       5.13522880
  C           10.46873107      28.67300892       3.21093411
units = au
no_com
no_reorient
}

set {
  e_convergence 10
  d_convergence 10
  scf_type df
  mp2_type df
  cc_type df
  freeze_core true
}

energy('sapt0/aug-cc-pvdz')

--------------------------------------------------------------------------

  //              Dimer HF             //
    Molecular point group: c1
  Charge       = 0
  Multiplicity = 1
  Basis Set: AUG-CC-PVDZ
    Blend: AUG-CC-PVDZ
  Basis Set: (AUG-CC-PVDZ AUX)
    Blend: AUG-CC-PVDZ-JKFIT
  @DF-RHF Final Energy:  -449.68735287817208
    Total Energy =                       -449.6873528781720779
  //            Monomer A HF           //
    Molecular point group: c1
  Multiplicity = 1
  Basis Set: AUG-CC-PVDZ
    Blend: AUG-CC-PVDZ
  Basis Set: (AUG-CC-PVDZ AUX)
    Blend: AUG-CC-PVDZ-JKFIT
  @DF-RHF Final Energy:  -224.84369627837515
    Total Energy =                       -224.8436962783751483
  //            Monomer B HF           //
    Molecular point group: c1

    Geometry (in Bohr), charge = 0, multiplicity = 1:

       Center              X                  Y                   Z               Mass
    ------------   -----------------  -----------------  -----------------  -----------------
      Gh(N)          -4.293096210000    -3.068374310000     5.305162310000    14.003074004430
      Gh(N)          -2.158473710000    -2.926272960000     1.720374480000    14.003074004430
      Gh(H)          -0.025455870000    -6.359035750000     2.220464520000     1.007825032230
      Gh(H)          -2.685669680000    -6.532602410000     6.614459540000     1.007825032230
      Gh(H)          -4.743884230000    -0.006090060000     2.756159680000     1.007825032230
      Gh(H)          -1.410455400000    -2.247231470000     0.000000000000     1.007825032230
      Gh(C)          -1.437379910000    -5.075048480000     2.940658910000    12.000000000000
      Gh(C)          -2.769007820000    -5.146099160000     5.135228800000    12.000000000000
      Gh(C)          -3.859550360000    -1.777281980000     3.210934110000    12.000000000000
         N           10.035185220000    27.381916580000     5.305162310000    14.003074004430
         N           12.169807720000    27.524017940000     1.720374480000    14.003074004430
         H           14.302825560000    24.091255150000     2.220464520000     1.007825032230
         H           11.642611750000    23.917688490000     6.614459540000     1.007825032230
         H            9.584397200000    30.444200840000     2.756159680000     1.007825032230
         H           12.917826020000    28.203059430000     0.000000000000     1.007825032230
         C           12.890901520000    25.375242410000     2.940658910000    12.000000000000
         C           11.559273610000    25.304191730000     5.135228800000    12.000000000000
         C           10.468731070000    28.673008920000     3.210934110000    12.000000000000

  Charge       = 0
  Multiplicity = 1
  Basis Set: AUG-CC-PVDZ
    Blend: AUG-CC-PVDZ
  Basis Set: (AUG-CC-PVDZ AUX)
    Blend: AUG-CC-PVDZ-JKFIT

    Orbital Energies [Eh]
    ---------------------

    Doubly Occupied:

       1A    -15.637071     2A    -15.551216     3A    -11.300916
       4A    -11.263160     5A    -11.245653     6A     -1.352867
       7A     -1.169098     8A     -1.012098     9A     -0.824390
      10A     -0.803731    11A     -0.760666    12A     -0.610096
      13A     -0.603958    14A     -0.601922    15A     -0.570942
      16A     -0.435483    17A     -0.400464    18A     -0.320685

  @DF-RHF Final Energy:  -224.84369627968130

   => Energetics <=

    Nuclear Repulsion Energy =            164.0866958829427347
    One-Electron Energy =                -628.9319560864587402
    Two-Electron Energy =                 240.0015639238346807
    Total Energy =                       -224.8436962796812963

  Dipole Moment: [D]
     X:     2.0431      Y:     0.4150      Z:    -3.3867     Total:     3.9769

    SAPT Results
  --------------------------------------------------------------------------------------------------------
    Electrostatics                  0.03977705 [mEh]       0.02496048 [kcal/mol]       0.10443463 [kJ/mol]
      Elst10,r                      0.03977705 [mEh]       0.02496048 [kcal/mol]       0.10443463 [kJ/mol]

    Exchange                        0.00000000 [mEh]       0.00000000 [kcal/mol]       0.00000000 [kJ/mol]
      Exch10                        0.00000000 [mEh]       0.00000000 [kcal/mol]       0.00000000 [kJ/mol]
      Exch10(S^2)                   0.00000000 [mEh]       0.00000000 [kcal/mol]       0.00000000 [kJ/mol]

    Induction                      -0.00009716 [mEh]      -0.00006097 [kcal/mol]      -0.00025511 [kJ/mol]
      Ind20,r                      -0.00010332 [mEh]      -0.00006483 [kcal/mol]      -0.00027126 [kJ/mol]
      Exch-Ind20,r                  0.00000000 [mEh]       0.00000000 [kcal/mol]       0.00000000 [kJ/mol]
      delta HF,r (2)                0.00000615 [mEh]       0.00000386 [kcal/mol]       0.00001615 [kJ/mol]

    Dispersion                     -0.00079466 [mEh]      -0.00049866 [kcal/mol]      -0.00208638 [kJ/mol]
      Disp20                       -0.00079466 [mEh]      -0.00049866 [kcal/mol]      -0.00208638 [kJ/mol]
      Exch-Disp20                   0.00000000 [mEh]       0.00000000 [kcal/mol]       0.00000000 [kJ/mol]
      Disp20 (SS)                  -0.00039733 [mEh]      -0.00024933 [kcal/mol]      -0.00104319 [kJ/mol]
      Disp20 (OS)                  -0.00039733 [mEh]      -0.00024933 [kcal/mol]      -0.00104319 [kJ/mol]
      Exch-Disp20 (SS)              0.00000000 [mEh]       0.00000000 [kcal/mol]       0.00000000 [kJ/mol]
      Exch-Disp20 (OS)              0.00000000 [mEh]       0.00000000 [kcal/mol]       0.00000000 [kJ/mol]

  Total HF                          0.03967988 [mEh]       0.02489950 [kcal/mol]       0.10417952 [kJ/mol]
  Total SAPT0                       0.03888522 [mEh]       0.02440085 [kcal/mol]       0.10209314 [kJ/mol]

  Special recipe for scaled SAPT0 (see Manual):
    Electrostatics sSAPT0           0.03977705 [mEh]       0.02496048 [kcal/mol]       0.10443463 [kJ/mol]
    Exchange sSAPT0                 0.00000000 [mEh]       0.00000000 [kcal/mol]       0.00000000 [kJ/mol]
    Induction sSAPT0               -0.00009716 [mEh]      -0.00006097 [kcal/mol]      -0.00025511 [kJ/mol]
    Dispersion sSAPT0              -0.00079466 [mEh]      -0.00049866 [kcal/mol]      -0.00208638 [kJ/mol]
  Total sSAPT0                      0.03888522 [mEh]       0.02440085 [kcal/mol]       0.10209314 [kJ/mol]
  --------------------------------------------------------------------------------------------------------

*** Psi4 exiting successfully. Buy a developer a beer!
