                               Psi4 1.4rc3

  ==> Input File <==

--------------------------------------------------------------------------
# PSI4 file produced by CrystaLattE

# Generated from:               imidazole.xyz
# Psithon input for N-mer:      2mer-0+84
# Number of atoms per monomer:  [9, 9]
# Number of replicas:           2
# COM priority:                 6.518575148670e-05
# Minimum COM separations:      13.149
# Separation priority:          2.054989437645e-04
# Minimum monomer separations:  8.967
# Cutoff priority:              1.212679749443e-05
# Nuclear repulsion energy:     380.59081617637685

memory 7 GB

molecule Dimer_0_84 {
  N           -4.29309621      -3.06837431       5.30516231
  N           -2.15847371      -2.92627296       1.72037448
  H           -0.02545587      -6.35903575       2.22046452
  H           -2.68566968      -6.53260241       6.61445954
  H           -4.74388423      -0.00609006       2.75615968
  H           -1.41045540      -2.24723147       0.00000000
  C           -1.43737991      -5.07504848       2.94065891
  C           -2.76900782      -5.14609916       5.13522880
  C           -3.85955036      -1.77728198       3.21093411
--
  N          -18.62137764      17.23181962       5.30516231
  N          -16.48675514      17.37392098       1.72037448
  H          -14.35373730      13.94115818       2.22046452
  H          -17.01395111      13.76759152       6.61445954
  H          -19.07216565      20.29410387       2.75615968
  H          -15.73873683      18.05296246       0.00000000
  C          -15.76566134      15.22514545       2.94065891
  C          -17.09728925      15.15409477       5.13522880
  C          -18.18783179      18.52291195       3.21093411
units = au
no_com
no_reorient
}

set {
  e_convergence 10
  d_convergence 10
  scf_type df
  mp2_type df
  cc_type df
  freeze_core true
}

energy('sapt0/aug-cc-pvdz')

--------------------------------------------------------------------------

  //              Dimer HF             //
    Molecular point group: c1
  Charge       = 0
  Multiplicity = 1
  Basis Set: AUG-CC-PVDZ
    Blend: AUG-CC-PVDZ
  Basis Set: (AUG-CC-PVDZ AUX)
    Blend: AUG-CC-PVDZ-JKFIT
  @DF-RHF Final Energy:  -449.68725315145088
    Total Energy =                       -449.6872531514509319
  //            Monomer A HF           //
    Molecular point group: c1
  Multiplicity = 1
  Basis Set: AUG-CC-PVDZ
    Blend: AUG-CC-PVDZ
  Basis Set: (AUG-CC-PVDZ AUX)
    Blend: AUG-CC-PVDZ-JKFIT
  @DF-RHF Final Energy:  -224.84369736553239
    Total Energy =                       -224.8436973655323925
  //            Monomer B HF           //
    Molecular point group: c1

    Geometry (in Bohr), charge = 0, multiplicity = 1:

       Center              X                  Y                   Z               Mass
    ------------   -----------------  -----------------  -----------------  -----------------
      Gh(N)          -4.293096210000    -3.068374310000     5.305162310000    14.003074004430
      Gh(N)          -2.158473710000    -2.926272960000     1.720374480000    14.003074004430
      Gh(H)          -0.025455870000    -6.359035750000     2.220464520000     1.007825032230
      Gh(H)          -2.685669680000    -6.532602410000     6.614459540000     1.007825032230
      Gh(H)          -4.743884230000    -0.006090060000     2.756159680000     1.007825032230
      Gh(H)          -1.410455400000    -2.247231470000     0.000000000000     1.007825032230
      Gh(C)          -1.437379910000    -5.075048480000     2.940658910000    12.000000000000
      Gh(C)          -2.769007820000    -5.146099160000     5.135228800000    12.000000000000
      Gh(C)          -3.859550360000    -1.777281980000     3.210934110000    12.000000000000
         N          -18.621377640000    17.231819620000     5.305162310000    14.003074004430
         N          -16.486755140000    17.373920980000     1.720374480000    14.003074004430
         H          -14.353737300000    13.941158180000     2.220464520000     1.007825032230
         H          -17.013951110000    13.767591520000     6.614459540000     1.007825032230
         H          -19.072165650000    20.294103870000     2.756159680000     1.007825032230
         H          -15.738736830000    18.052962460000     0.000000000000     1.007825032230
         C          -15.765661340000    15.225145450000     2.940658910000    12.000000000000
         C          -17.097289250000    15.154094770000     5.135228800000    12.000000000000
         C          -18.187831790000    18.522911950000     3.210934110000    12.000000000000

  Charge       = 0
  Multiplicity = 1
  Basis Set: AUG-CC-PVDZ
    Blend: AUG-CC-PVDZ
  Basis Set: (AUG-CC-PVDZ AUX)
    Blend: AUG-CC-PVDZ-JKFIT

    Orbital Energies [Eh]
    ---------------------

    Doubly Occupied:

       1A    -15.637071     2A    -15.551216     3A    -11.300916
       4A    -11.263159     5A    -11.245652     6A     -1.352867
       7A     -1.169098     8A     -1.012098     9A     -0.824390
      10A     -0.803731    11A     -0.760666    12A     -0.610096
      13A     -0.603958    14A     -0.601922    15A     -0.570942
      16A     -0.435483    17A     -0.400464    18A     -0.320685

  @DF-RHF Final Energy:  -224.84369750575240

   => Energetics <=

    Nuclear Repulsion Energy =            164.0866959723995819
    One-Electron Energy =                -628.9319634874747180
    Two-Electron Energy =                 240.0015700093227338
    Total Energy =                       -224.8436975057524023

  Dipole Moment: [D]
     X:     2.0431      Y:     0.4150      Z:    -3.3867     Total:     3.9769

    SAPT Results
  --------------------------------------------------------------------------------------------------------
    Electrostatics                  0.14250107 [mEh]       0.08942077 [kcal/mol]       0.37413651 [kJ/mol]
      Elst10,r                      0.14250107 [mEh]       0.08942077 [kcal/mol]       0.37413651 [kJ/mol]

    Exchange                        0.00000137 [mEh]       0.00000086 [kcal/mol]       0.00000360 [kJ/mol]
      Exch10                        0.00000137 [mEh]       0.00000086 [kcal/mol]       0.00000360 [kJ/mol]
      Exch10(S^2)                   0.00000137 [mEh]       0.00000086 [kcal/mol]       0.00000360 [kJ/mol]

    Induction                      -0.00078261 [mEh]      -0.00049109 [kcal/mol]      -0.00205473 [kJ/mol]
      Ind20,r                      -0.00078680 [mEh]      -0.00049373 [kcal/mol]      -0.00206575 [kJ/mol]
      Exch-Ind20,r                  0.00000206 [mEh]       0.00000129 [kcal/mol]       0.00000540 [kJ/mol]
      delta HF,r (2)                0.00000214 [mEh]       0.00000134 [kcal/mol]       0.00000561 [kJ/mol]

    Dispersion                     -0.00701532 [mEh]      -0.00440218 [kcal/mol]      -0.01841872 [kJ/mol]
      Disp20                       -0.00701544 [mEh]      -0.00440225 [kcal/mol]      -0.01841903 [kJ/mol]
      Exch-Disp20                   0.00000012 [mEh]       0.00000007 [kcal/mol]       0.00000031 [kJ/mol]
      Disp20 (SS)                  -0.00350772 [mEh]      -0.00220113 [kcal/mol]      -0.00920951 [kJ/mol]
      Disp20 (OS)                  -0.00350772 [mEh]      -0.00220113 [kcal/mol]      -0.00920951 [kJ/mol]
      Exch-Disp20 (SS)              0.00000009 [mEh]       0.00000006 [kcal/mol]       0.00000024 [kJ/mol]
      Exch-Disp20 (OS)              0.00000003 [mEh]       0.00000002 [kcal/mol]       0.00000007 [kJ/mol]

  Total HF                          0.14171983 [mEh]       0.08893054 [kcal/mol]       0.37208537 [kJ/mol]
  Total SAPT0                       0.13470452 [mEh]       0.08452836 [kcal/mol]       0.35366666 [kJ/mol]

  Special recipe for scaled SAPT0 (see Manual):
    Electrostatics sSAPT0           0.14250107 [mEh]       0.08942077 [kcal/mol]       0.37413651 [kJ/mol]
    Exchange sSAPT0                 0.00000137 [mEh]       0.00000086 [kcal/mol]       0.00000360 [kJ/mol]
    Induction sSAPT0               -0.00078261 [mEh]      -0.00049109 [kcal/mol]      -0.00205473 [kJ/mol]
    Dispersion sSAPT0              -0.00701532 [mEh]      -0.00440218 [kcal/mol]      -0.01841872 [kJ/mol]
  Total sSAPT0                      0.13470452 [mEh]       0.08452836 [kcal/mol]       0.35366666 [kJ/mol]
  --------------------------------------------------------------------------------------------------------

*** Psi4 exiting successfully. Buy a developer a beer!
