                               Psi4 1.4rc3

  ==> Input File <==

--------------------------------------------------------------------------
# PSI4 file produced by CrystaLattE

# Generated from:               imidazole.xyz
# Psithon input for N-mer:      2mer-0+349
# Number of atoms per monomer:  [9, 9]
# Number of replicas:           1
# COM priority:                 1.421082439967e-05
# Minimum COM separations:      21.847
# Separation priority:          2.349505221824e-05
# Minimum monomer separations:  18.476
# Cutoff priority:              6.729279278836e-07
# Nuclear repulsion energy:     359.68064544911283

memory 7 GB

molecule Dimer_0_349 {
  N           -4.29309621      -3.06837431       5.30516231
  N           -2.15847371      -2.92627296       1.72037448
  H           -0.02545587      -6.35903575       2.22046452
  H           -2.68566968      -6.53260241       6.61445954
  H           -4.74388423      -0.00609006       2.75615968
  H           -1.41045540      -2.24723147       0.00000000
  C           -1.43737991      -5.07504848       2.94065891
  C           -2.76900782      -5.14609916       5.13522880
  C           -3.85955036      -1.77728198       3.21093411
--
  N           32.89113413      -6.17836402     -20.87754540
  N           30.75651163      -6.32046538     -17.29275757
  H           28.62349379      -2.88770259     -17.79284761
  H           31.28370760      -2.71413593     -22.18684263
  H           33.34192214      -9.24064828     -18.32854276
  H           30.00849332      -6.99950687     -15.57238309
  C           30.03541783      -4.17168985     -18.51304200
  C           31.36704574      -4.10063917     -20.70761189
  C           32.45758828      -7.46945636     -18.78331720
units = au
no_com
no_reorient
}

set {
  e_convergence 10
  d_convergence 10
  scf_type df
  mp2_type df
  cc_type df
  freeze_core true
}

energy('sapt0/aug-cc-pvdz')

--------------------------------------------------------------------------

  //              Dimer HF             //
    Molecular point group: c1
  Charge       = 0
  Multiplicity = 1
  Basis Set: AUG-CC-PVDZ
    Blend: AUG-CC-PVDZ
  Basis Set: (AUG-CC-PVDZ AUX)
    Blend: AUG-CC-PVDZ-JKFIT
  @DF-RHF Final Energy:  -449.68734926585819
    Total Energy =                       -449.6873492658581881
  //            Monomer A HF           //
    Molecular point group: c1
  Multiplicity = 1
  Basis Set: AUG-CC-PVDZ
    Blend: AUG-CC-PVDZ
  Basis Set: (AUG-CC-PVDZ AUX)
    Blend: AUG-CC-PVDZ-JKFIT
  @DF-RHF Final Energy:  -224.84369627761751
    Total Energy =                       -224.8436962776175108
  //            Monomer B HF           //
    Molecular point group: c1

    Geometry (in Bohr), charge = 0, multiplicity = 1:

       Center              X                  Y                   Z               Mass
    ------------   -----------------  -----------------  -----------------  -----------------
      Gh(N)          -4.293096210000    -3.068374310000     5.305162310000    14.003074004430
      Gh(N)          -2.158473710000    -2.926272960000     1.720374480000    14.003074004430
      Gh(H)          -0.025455870000    -6.359035750000     2.220464520000     1.007825032230
      Gh(H)          -2.685669680000    -6.532602410000     6.614459540000     1.007825032230
      Gh(H)          -4.743884230000    -0.006090060000     2.756159680000     1.007825032230
      Gh(H)          -1.410455400000    -2.247231470000     0.000000000000     1.007825032230
      Gh(C)          -1.437379910000    -5.075048480000     2.940658910000    12.000000000000
      Gh(C)          -2.769007820000    -5.146099160000     5.135228800000    12.000000000000
      Gh(C)          -3.859550360000    -1.777281980000     3.210934110000    12.000000000000
         N           32.891134130000    -6.178364020000   -20.877545400000    14.003074004430
         N           30.756511630000    -6.320465380000   -17.292757570000    14.003074004430
         H           28.623493790000    -2.887702590000   -17.792847610000     1.007825032230
         H           31.283707600000    -2.714135930000   -22.186842630000     1.007825032230
         H           33.341922140000    -9.240648280000   -18.328542760000     1.007825032230
         H           30.008493320000    -6.999506870000   -15.572383090000     1.007825032230
         C           30.035417830000    -4.171689850000   -18.513042000000    12.000000000000
         C           31.367045740000    -4.100639170000   -20.707611890000    12.000000000000
         C           32.457588280000    -7.469456360000   -18.783317200000    12.000000000000

  Charge       = 0
  Multiplicity = 1
  Basis Set: AUG-CC-PVDZ
    Blend: AUG-CC-PVDZ
  Basis Set: (AUG-CC-PVDZ AUX)
    Blend: AUG-CC-PVDZ-JKFIT

    Orbital Energies [Eh]
    ---------------------

    Doubly Occupied:

       1A    -15.637071     2A    -15.551216     3A    -11.300916
       4A    -11.263160     5A    -11.245653     6A     -1.352867
       7A     -1.169098     8A     -1.012098     9A     -0.824390
      10A     -0.803731    11A     -0.760666    12A     -0.610096
      13A     -0.603958    14A     -0.601922    15A     -0.570942
      16A     -0.435483    17A     -0.400464    18A     -0.320685

  @DF-RHF Final Energy:  -224.84369627759347

   => Energetics <=

    Nuclear Repulsion Energy =            164.0866958786657506
    One-Electron Energy =                -628.9319560703166871
    Two-Electron Energy =                 240.0015639140574706
    Total Energy =                       -224.8436962775934660

  Dipole Moment: [D]
     X:    -2.0431      Y:    -0.4150      Z:     3.3867     Total:     3.9769

    SAPT Results
  --------------------------------------------------------------------------------------------------------
    Electrostatics                  0.04338004 [mEh]       0.02722138 [kcal/mol]       0.11389427 [kJ/mol]
      Elst10,r                      0.04338004 [mEh]       0.02722138 [kcal/mol]       0.11389427 [kJ/mol]

    Exchange                        0.00000000 [mEh]       0.00000000 [kcal/mol]       0.00000000 [kJ/mol]
      Exch10                        0.00000000 [mEh]       0.00000000 [kcal/mol]       0.00000000 [kJ/mol]
      Exch10(S^2)                   0.00000000 [mEh]       0.00000000 [kcal/mol]       0.00000000 [kJ/mol]

    Induction                      -0.00009068 [mEh]      -0.00005690 [kcal/mol]      -0.00023809 [kJ/mol]
      Ind20,r                      -0.00008440 [mEh]      -0.00005296 [kcal/mol]      -0.00022160 [kJ/mol]
      Exch-Ind20,r                  0.00000000 [mEh]       0.00000000 [kcal/mol]       0.00000000 [kJ/mol]
      delta HF,r (2)               -0.00000628 [mEh]      -0.00000394 [kcal/mol]      -0.00001648 [kJ/mol]

    Dispersion                     -0.00028347 [mEh]      -0.00017788 [kcal/mol]      -0.00074424 [kJ/mol]
      Disp20                       -0.00028347 [mEh]      -0.00017788 [kcal/mol]      -0.00074424 [kJ/mol]
      Exch-Disp20                   0.00000000 [mEh]       0.00000000 [kcal/mol]       0.00000000 [kJ/mol]
      Disp20 (SS)                  -0.00014173 [mEh]      -0.00008894 [kcal/mol]      -0.00037212 [kJ/mol]
      Disp20 (OS)                  -0.00014173 [mEh]      -0.00008894 [kcal/mol]      -0.00037212 [kJ/mol]
      Exch-Disp20 (SS)              0.00000000 [mEh]       0.00000000 [kcal/mol]       0.00000000 [kJ/mol]
      Exch-Disp20 (OS)              0.00000000 [mEh]       0.00000000 [kcal/mol]       0.00000000 [kJ/mol]

  Total HF                          0.04328935 [mEh]       0.02716448 [kcal/mol]       0.11365618 [kJ/mol]
  Total SAPT0                       0.04300589 [mEh]       0.02698660 [kcal/mol]       0.11291194 [kJ/mol]

  Special recipe for scaled SAPT0 (see Manual):
    Electrostatics sSAPT0           0.04338004 [mEh]       0.02722138 [kcal/mol]       0.11389427 [kJ/mol]
    Exchange sSAPT0                 0.00000000 [mEh]       0.00000000 [kcal/mol]       0.00000000 [kJ/mol]
    Induction sSAPT0               -0.00009068 [mEh]      -0.00005690 [kcal/mol]      -0.00023809 [kJ/mol]
    Dispersion sSAPT0              -0.00028347 [mEh]      -0.00017788 [kcal/mol]      -0.00074424 [kJ/mol]
  Total sSAPT0                      0.04300589 [mEh]       0.02698660 [kcal/mol]       0.11291194 [kJ/mol]
  --------------------------------------------------------------------------------------------------------

*** Psi4 exiting successfully. Buy a developer a beer!
