                               Psi4 1.4rc3

  ==> Input File <==

--------------------------------------------------------------------------
# PSI4 file produced by CrystaLattE

# Generated from:               imidazole.xyz
# Psithon input for N-mer:      2mer-0+298
# Number of atoms per monomer:  [9, 9]
# Number of replicas:           1
# COM priority:                 2.442090614716e-05
# Minimum COM separations:      18.240
# Separation priority:          4.222536116260e-05
# Minimum monomer separations:  15.196
# Cutoff priority:              1.470385339186e-06
# Nuclear repulsion energy:     365.8181506493537

memory 7 GB

molecule Dimer_0_298 {
  N           -4.29309621      -3.06837431       5.30516231
  N           -2.15847371      -2.92627296       1.72037448
  H           -0.02545587      -6.35903575       2.22046452
  H           -2.68566968      -6.53260241       6.61445954
  H           -4.74388423      -0.00609006       2.75615968
  H           -1.41045540      -2.24723147       0.00000000
  C           -1.43737991      -5.07504848       2.94065891
  C           -2.76900782      -5.14609916       5.13522880
  C           -3.85955036      -1.77728198       3.21093411
--
  N           29.29067178     -16.32846099      11.49074204
  N           27.15604928     -16.47056235      15.07552988
  H           25.02303144     -13.03779955      14.57543984
  H           27.68324525     -12.86423289      10.18144482
  H           29.74145980     -19.39074524      14.03974468
  H           26.40803097     -17.14960383      16.79590435
  C           26.43495548     -14.32178682      13.85524544
  C           27.76658339     -14.25073614      11.66067555
  C           28.85712593     -17.61955332      13.58497024
units = au
no_com
no_reorient
}

set {
  e_convergence 10
  d_convergence 10
  scf_type df
  mp2_type df
  cc_type df
  freeze_core true
}

energy('sapt0/aug-cc-pvdz')

--------------------------------------------------------------------------

  //              Dimer HF             //
    Molecular point group: c1
  Charge       = 0
  Multiplicity = 1
  Basis Set: AUG-CC-PVDZ
    Blend: AUG-CC-PVDZ
  Basis Set: (AUG-CC-PVDZ AUX)
    Blend: AUG-CC-PVDZ-JKFIT
  @DF-RHF Final Energy:  -449.68743684319185
    Total Energy =                       -449.6874368431919038
  //            Monomer A HF           //
    Molecular point group: c1
  Multiplicity = 1
  Basis Set: AUG-CC-PVDZ
    Blend: AUG-CC-PVDZ
  Basis Set: (AUG-CC-PVDZ AUX)
    Blend: AUG-CC-PVDZ-JKFIT
  @DF-RHF Final Energy:  -224.84369627848258
    Total Energy =                       -224.8436962784825823
  //            Monomer B HF           //
    Molecular point group: c1

    Geometry (in Bohr), charge = 0, multiplicity = 1:

       Center              X                  Y                   Z               Mass
    ------------   -----------------  -----------------  -----------------  -----------------
      Gh(N)          -4.293096210000    -3.068374310000     5.305162310000    14.003074004430
      Gh(N)          -2.158473710000    -2.926272960000     1.720374480000    14.003074004430
      Gh(H)          -0.025455870000    -6.359035750000     2.220464520000     1.007825032230
      Gh(H)          -2.685669680000    -6.532602410000     6.614459540000     1.007825032230
      Gh(H)          -4.743884230000    -0.006090060000     2.756159680000     1.007825032230
      Gh(H)          -1.410455400000    -2.247231470000     0.000000000000     1.007825032230
      Gh(C)          -1.437379910000    -5.075048480000     2.940658910000    12.000000000000
      Gh(C)          -2.769007820000    -5.146099160000     5.135228800000    12.000000000000
      Gh(C)          -3.859550360000    -1.777281980000     3.210934110000    12.000000000000
         N           29.290671780000   -16.328460990000    11.490742040000    14.003074004430
         N           27.156049280000   -16.470562350000    15.075529880000    14.003074004430
         H           25.023031440000   -13.037799550000    14.575439840000     1.007825032230
         H           27.683245250000   -12.864232890000    10.181444820000     1.007825032230
         H           29.741459800000   -19.390745240000    14.039744680000     1.007825032230
         H           26.408030970000   -17.149603830000    16.795904350000     1.007825032230
         C           26.434955480000   -14.321786820000    13.855245440000    12.000000000000
         C           27.766583390000   -14.250736140000    11.660675550000    12.000000000000
         C           28.857125930000   -17.619553320000    13.584970240000    12.000000000000

  Charge       = 0
  Multiplicity = 1
  Basis Set: AUG-CC-PVDZ
    Blend: AUG-CC-PVDZ
  Basis Set: (AUG-CC-PVDZ AUX)
    Blend: AUG-CC-PVDZ-JKFIT

    Orbital Energies [Eh]
    ---------------------

    Doubly Occupied:

       1A    -15.637071     2A    -15.551216     3A    -11.300916
       4A    -11.263160     5A    -11.245653     6A     -1.352867
       7A     -1.169098     8A     -1.012098     9A     -0.824390
      10A     -0.803731    11A     -0.760666    12A     -0.610096
      13A     -0.603958    14A     -0.601922    15A     -0.570942
      16A     -0.435483    17A     -0.400464    18A     -0.320685

  @DF-RHF Final Energy:  -224.84369627935604

   => Energetics <=

    Nuclear Repulsion Energy =            164.0866958643024134
    One-Electron Energy =                -628.9319560439608949
    Two-Electron Energy =                 240.0015639003024148
    Total Energy =                       -224.8436962793560383

  Dipole Moment: [D]
     X:    -2.0431      Y:    -0.4150      Z:     3.3867     Total:     3.9769

    SAPT Results
  --------------------------------------------------------------------------------------------------------
    Electrostatics                 -0.04422030 [mEh]      -0.02774866 [kcal/mol]      -0.11610039 [kJ/mol]
      Elst10,r                     -0.04422030 [mEh]      -0.02774866 [kcal/mol]      -0.11610039 [kJ/mol]

    Exchange                        0.00000000 [mEh]       0.00000000 [kcal/mol]       0.00000000 [kJ/mol]
      Exch10                        0.00000000 [mEh]       0.00000000 [kcal/mol]       0.00000000 [kJ/mol]
      Exch10(S^2)                   0.00000000 [mEh]       0.00000000 [kcal/mol]       0.00000000 [kJ/mol]

    Induction                      -0.00006505 [mEh]      -0.00004082 [kcal/mol]      -0.00017079 [kJ/mol]
      Ind20,r                      -0.00007085 [mEh]      -0.00004446 [kcal/mol]      -0.00018602 [kJ/mol]
      Exch-Ind20,r                  0.00000000 [mEh]       0.00000000 [kcal/mol]       0.00000000 [kJ/mol]
      delta HF,r (2)                0.00000580 [mEh]       0.00000364 [kcal/mol]       0.00001523 [kJ/mol]

    Dispersion                     -0.00077546 [mEh]      -0.00048661 [kcal/mol]      -0.00203597 [kJ/mol]
      Disp20                       -0.00077546 [mEh]      -0.00048661 [kcal/mol]      -0.00203597 [kJ/mol]
      Exch-Disp20                   0.00000000 [mEh]       0.00000000 [kcal/mol]       0.00000000 [kJ/mol]
      Disp20 (SS)                  -0.00038773 [mEh]      -0.00024330 [kcal/mol]      -0.00101798 [kJ/mol]
      Disp20 (OS)                  -0.00038773 [mEh]      -0.00024330 [kcal/mol]      -0.00101798 [kJ/mol]
      Exch-Disp20 (SS)              0.00000000 [mEh]       0.00000000 [kcal/mol]       0.00000000 [kJ/mol]
      Exch-Disp20 (OS)              0.00000000 [mEh]       0.00000000 [kcal/mol]       0.00000000 [kJ/mol]

  Total HF                         -0.04428535 [mEh]      -0.02778948 [kcal/mol]      -0.11627118 [kJ/mol]
  Total SAPT0                      -0.04506081 [mEh]      -0.02827609 [kcal/mol]      -0.11830714 [kJ/mol]

  Special recipe for scaled SAPT0 (see Manual):
    Electrostatics sSAPT0          -0.04422030 [mEh]      -0.02774866 [kcal/mol]      -0.11610039 [kJ/mol]
    Exchange sSAPT0                 0.00000000 [mEh]       0.00000000 [kcal/mol]       0.00000000 [kJ/mol]
    Induction sSAPT0               -0.00006505 [mEh]      -0.00004082 [kcal/mol]      -0.00017079 [kJ/mol]
    Dispersion sSAPT0              -0.00077546 [mEh]      -0.00048661 [kcal/mol]      -0.00203597 [kJ/mol]
  Total sSAPT0                     -0.04506081 [mEh]      -0.02827609 [kcal/mol]      -0.11830714 [kJ/mol]
  --------------------------------------------------------------------------------------------------------

*** Psi4 exiting successfully. Buy a developer a beer!
