                               Psi4 1.4rc3

  ==> Input File <==

--------------------------------------------------------------------------
# PSI4 file produced by CrystaLattE

# Generated from:               imidazole.xyz
# Psithon input for N-mer:      2mer-0+116
# Number of atoms per monomer:  [9, 9]
# Number of replicas:           1
# COM priority:                 1.292419248013e-04
# Minimum COM separations:      10.466
# Separation priority:          3.240218200635e-04
# Minimum monomer separations:  7.704
# Cutoff priority:              2.225524311667e-05
# Nuclear repulsion energy:     393.54709369944624

memory 7 GB

molecule Dimer_0_116 {
  N           -4.29309621      -3.06837431       5.30516231
  N           -2.15847371      -2.92627296       1.72037448
  H           -0.02545587      -6.35903575       2.22046452
  H           -2.68566968      -6.53260241       6.61445954
  H           -4.74388423      -0.00609006       2.75615968
  H           -1.41045540      -2.24723147       0.00000000
  C           -1.43737991      -5.07504848       2.94065891
  C           -2.76900782      -5.14609916       5.13522880
  C           -3.85955036      -1.77728198       3.21093411
--
  N          -13.69417250     -16.32846099      11.49074204
  N          -15.82879500     -16.47056235      15.07552988
  H          -17.96181285     -13.03779955      14.57543984
  H          -15.30159903     -12.86423289      10.18144482
  H          -13.24338449     -19.39074524      14.03974468
  H          -16.57681331     -17.14960383      16.79590435
  C          -16.54988880     -14.32178682      13.85524544
  C          -15.21826089     -14.25073614      11.66067555
  C          -14.12771836     -17.61955332      13.58497024
units = au
no_com
no_reorient
}

set {
  e_convergence 10
  d_convergence 10
  scf_type df
  mp2_type df
  cc_type df
  freeze_core true
}

energy('sapt0/aug-cc-pvdz')

--------------------------------------------------------------------------

  //              Dimer HF             //
    Molecular point group: c1
  Charge       = 0
  Multiplicity = 1
  Basis Set: AUG-CC-PVDZ
    Blend: AUG-CC-PVDZ
  Basis Set: (AUG-CC-PVDZ AUX)
    Blend: AUG-CC-PVDZ-JKFIT
  @DF-RHF Final Energy:  -449.68724499305898
    Total Energy =                       -449.6872449930589255
  //            Monomer A HF           //
    Molecular point group: c1
  Multiplicity = 1
  Basis Set: AUG-CC-PVDZ
    Blend: AUG-CC-PVDZ
  Basis Set: (AUG-CC-PVDZ AUX)
    Blend: AUG-CC-PVDZ-JKFIT
  @DF-RHF Final Energy:  -224.84369981246448
    Total Energy =                       -224.8436998124644788
  //            Monomer B HF           //
    Molecular point group: c1

    Geometry (in Bohr), charge = 0, multiplicity = 1:

       Center              X                  Y                   Z               Mass
    ------------   -----------------  -----------------  -----------------  -----------------
      Gh(N)          -4.293096210000    -3.068374310000     5.305162310000    14.003074004430
      Gh(N)          -2.158473710000    -2.926272960000     1.720374480000    14.003074004430
      Gh(H)          -0.025455870000    -6.359035750000     2.220464520000     1.007825032230
      Gh(H)          -2.685669680000    -6.532602410000     6.614459540000     1.007825032230
      Gh(H)          -4.743884230000    -0.006090060000     2.756159680000     1.007825032230
      Gh(H)          -1.410455400000    -2.247231470000     0.000000000000     1.007825032230
      Gh(C)          -1.437379910000    -5.075048480000     2.940658910000    12.000000000000
      Gh(C)          -2.769007820000    -5.146099160000     5.135228800000    12.000000000000
      Gh(C)          -3.859550360000    -1.777281980000     3.210934110000    12.000000000000
         N          -13.694172500000   -16.328460990000    11.490742040000    14.003074004430
         N          -15.828795000000   -16.470562350000    15.075529880000    14.003074004430
         H          -17.961812850000   -13.037799550000    14.575439840000     1.007825032230
         H          -15.301599030000   -12.864232890000    10.181444820000     1.007825032230
         H          -13.243384490000   -19.390745240000    14.039744680000     1.007825032230
         H          -16.576813310000   -17.149603830000    16.795904350000     1.007825032230
         C          -16.549888800000   -14.321786820000    13.855245440000    12.000000000000
         C          -15.218260890000   -14.250736140000    11.660675550000    12.000000000000
         C          -14.127718360000   -17.619553320000    13.584970240000    12.000000000000

  Charge       = 0
  Multiplicity = 1
  Basis Set: AUG-CC-PVDZ
    Blend: AUG-CC-PVDZ
  Basis Set: (AUG-CC-PVDZ AUX)
    Blend: AUG-CC-PVDZ-JKFIT

    Orbital Energies [Eh]
    ---------------------

    Doubly Occupied:

       1A    -15.637072     2A    -15.551218     3A    -11.300917
       4A    -11.263159     5A    -11.245650     6A     -1.352867
       7A     -1.169099     8A     -1.012098     9A     -0.824390
      10A     -0.803732    11A     -0.760667    12A     -0.610096
      13A     -0.603958    14A     -0.601923    15A     -0.570943
      16A     -0.435484    17A     -0.400465    18A     -0.320685

  @DF-RHF Final Energy:  -224.84369981267045

   => Energetics <=

    Nuclear Repulsion Energy =            164.0866959065581341
    One-Electron Energy =                -628.9319433457596915
    Two-Electron Energy =                 240.0015476265311065
    Total Energy =                       -224.8436998126704509

  Dipole Moment: [D]
     X:    -2.0430      Y:    -0.4151      Z:     3.3866     Total:     3.9769

    SAPT Results
  --------------------------------------------------------------------------------------------------------
    Electrostatics                  0.15964211 [mEh]       0.10017694 [kcal/mol]       0.41914031 [kJ/mol]
      Elst10,r                      0.15964211 [mEh]       0.10017694 [kcal/mol]       0.41914031 [kJ/mol]

    Exchange                        0.00000136 [mEh]       0.00000086 [kcal/mol]       0.00000358 [kJ/mol]
      Exch10                        0.00000136 [mEh]       0.00000086 [kcal/mol]       0.00000358 [kJ/mol]
      Exch10(S^2)                   0.00000136 [mEh]       0.00000086 [kcal/mol]       0.00000358 [kJ/mol]

    Induction                      -0.00501140 [mEh]      -0.00314470 [kcal/mol]      -0.01315743 [kJ/mol]
      Ind20,r                      -0.00514009 [mEh]      -0.00322546 [kcal/mol]      -0.01349531 [kJ/mol]
      Exch-Ind20,r                  0.00000554 [mEh]       0.00000347 [kcal/mol]       0.00001454 [kJ/mol]
      delta HF,r (2)                0.00012315 [mEh]       0.00007728 [kcal/mol]       0.00032334 [kJ/mol]

    Dispersion                     -0.02556501 [mEh]      -0.01604229 [kcal/mol]      -0.06712093 [kJ/mol]
      Disp20                       -0.02556567 [mEh]      -0.01604270 [kcal/mol]      -0.06712265 [kJ/mol]
      Exch-Disp20                   0.00000065 [mEh]       0.00000041 [kcal/mol]       0.00000171 [kJ/mol]
      Disp20 (SS)                  -0.01278283 [mEh]      -0.00802135 [kcal/mol]      -0.03356132 [kJ/mol]
      Disp20 (OS)                  -0.01278283 [mEh]      -0.00802135 [kcal/mol]      -0.03356132 [kJ/mol]
      Exch-Disp20 (SS)              0.00000055 [mEh]       0.00000035 [kcal/mol]       0.00000145 [kJ/mol]
      Exch-Disp20 (OS)              0.00000010 [mEh]       0.00000006 [kcal/mol]       0.00000026 [kJ/mol]

  Total HF                          0.15463208 [mEh]       0.09703309 [kcal/mol]       0.40598646 [kJ/mol]
  Total SAPT0                       0.12906706 [mEh]       0.08099080 [kcal/mol]       0.33886552 [kJ/mol]

  Special recipe for scaled SAPT0 (see Manual):
    Electrostatics sSAPT0           0.15964211 [mEh]       0.10017694 [kcal/mol]       0.41914031 [kJ/mol]
    Exchange sSAPT0                 0.00000136 [mEh]       0.00000086 [kcal/mol]       0.00000358 [kJ/mol]
    Induction sSAPT0               -0.00501140 [mEh]      -0.00314470 [kcal/mol]      -0.01315743 [kJ/mol]
    Dispersion sSAPT0              -0.02556501 [mEh]      -0.01604229 [kcal/mol]      -0.06712093 [kJ/mol]
  Total sSAPT0                      0.12906706 [mEh]       0.08099080 [kcal/mol]       0.33886552 [kJ/mol]
  --------------------------------------------------------------------------------------------------------

*** Psi4 exiting successfully. Buy a developer a beer!
