                               Psi4 1.4rc3

  ==> Input File <==

--------------------------------------------------------------------------
# PSI4 file produced by CrystaLattE

# Generated from:               imidazole.xyz
# Psithon input for N-mer:      2mer-0+397
# Number of atoms per monomer:  [9, 9]
# Number of replicas:           2
# COM priority:                 1.477393904695e-05
# Minimum COM separations:      21.566
# Separation priority:          2.530633400089e-05
# Minimum monomer separations:  18.024
# Cutoff priority:              7.429717728501e-07
# Nuclear repulsion energy:     360.02184608894373

memory 7 GB

molecule Dimer_0_397 {
  N           -4.29309621      -3.06837431       5.30516231
  N           -2.15847371      -2.92627296       1.72037448
  H           -0.02545587      -6.35903575       2.22046452
  H           -2.68566968      -6.53260241       6.61445954
  H           -4.74388423      -0.00609006       2.75615968
  H           -1.41045540      -2.24723147       0.00000000
  C           -1.43737991      -5.07504848       2.94065891
  C           -2.76900782      -5.14609916       5.13522880
  C           -3.85955036      -1.77728198       3.21093411
--
  N           23.48174305     -21.40350947     -18.97105327
  N           25.61636555     -21.54561083     -22.55584110
  H           27.74938339     -18.11284803     -22.05575106
  H           25.08916958     -17.93928138     -17.66175604
  H           23.03095504     -24.46579372     -21.52005591
  H           26.36438386     -22.22465231     -24.27621558
  C           26.33745935     -19.39683530     -21.33555667
  C           25.00583144     -19.32578462     -19.14098678
  C           23.91528890     -22.69460180     -21.06528147
units = au
no_com
no_reorient
}

set {
  e_convergence 10
  d_convergence 10
  scf_type df
  mp2_type df
  cc_type df
  freeze_core true
}

energy('sapt0/aug-cc-pvdz')

--------------------------------------------------------------------------

  //              Dimer HF             //
    Molecular point group: c1
  Charge       = 0
  Multiplicity = 1
  Basis Set: AUG-CC-PVDZ
    Blend: AUG-CC-PVDZ
  Basis Set: (AUG-CC-PVDZ AUX)
    Blend: AUG-CC-PVDZ-JKFIT
  @DF-RHF Final Energy:  -449.68743353099643
    Total Energy =                       -449.6874335309964295
  //            Monomer A HF           //
    Molecular point group: c1
  Multiplicity = 1
  Basis Set: AUG-CC-PVDZ
    Blend: AUG-CC-PVDZ
  Basis Set: (AUG-CC-PVDZ AUX)
    Blend: AUG-CC-PVDZ-JKFIT
  @DF-RHF Final Energy:  -224.84369627717095
    Total Energy =                       -224.8436962771709489
  //            Monomer B HF           //
    Molecular point group: c1

    Geometry (in Bohr), charge = 0, multiplicity = 1:

       Center              X                  Y                   Z               Mass
    ------------   -----------------  -----------------  -----------------  -----------------
      Gh(N)          -4.293096210000    -3.068374310000     5.305162310000    14.003074004430
      Gh(N)          -2.158473710000    -2.926272960000     1.720374480000    14.003074004430
      Gh(H)          -0.025455870000    -6.359035750000     2.220464520000     1.007825032230
      Gh(H)          -2.685669680000    -6.532602410000     6.614459540000     1.007825032230
      Gh(H)          -4.743884230000    -0.006090060000     2.756159680000     1.007825032230
      Gh(H)          -1.410455400000    -2.247231470000     0.000000000000     1.007825032230
      Gh(C)          -1.437379910000    -5.075048480000     2.940658910000    12.000000000000
      Gh(C)          -2.769007820000    -5.146099160000     5.135228800000    12.000000000000
      Gh(C)          -3.859550360000    -1.777281980000     3.210934110000    12.000000000000
         N           23.481743050000   -21.403509470000   -18.971053270000    14.003074004430
         N           25.616365550000   -21.545610830000   -22.555841100000    14.003074004430
         H           27.749383390000   -18.112848030000   -22.055751060000     1.007825032230
         H           25.089169580000   -17.939281380000   -17.661756040000     1.007825032230
         H           23.030955040000   -24.465793720000   -21.520055910000     1.007825032230
         H           26.364383860000   -22.224652310000   -24.276215580000     1.007825032230
         C           26.337459350000   -19.396835300000   -21.335556670000    12.000000000000
         C           25.005831440000   -19.325784620000   -19.140986780000    12.000000000000
         C           23.915288900000   -22.694601800000   -21.065281470000    12.000000000000

  Charge       = 0
  Multiplicity = 1
  Basis Set: AUG-CC-PVDZ
    Blend: AUG-CC-PVDZ
  Basis Set: (AUG-CC-PVDZ AUX)
    Blend: AUG-CC-PVDZ-JKFIT

    Orbital Energies [Eh]
    ---------------------

    Doubly Occupied:

       1A    -15.637071     2A    -15.551216     3A    -11.300916
       4A    -11.263160     5A    -11.245653     6A     -1.352867
       7A     -1.169098     8A     -1.012098     9A     -0.824390
      10A     -0.803731    11A     -0.760666    12A     -0.610096
      13A     -0.603958    14A     -0.601922    15A     -0.570942
      16A     -0.435483    17A     -0.400464    18A     -0.320685

  @DF-RHF Final Energy:  -224.84369627849679

   => Energetics <=

    Nuclear Repulsion Energy =            164.0866959844954067
    One-Electron Energy =                -628.9319562753606760
    Two-Electron Energy =                 240.0015640123684761
    Total Energy =                       -224.8436962784967932

  Dipole Moment: [D]
     X:     2.0431      Y:    -0.4150      Z:    -3.3867     Total:     3.9769

    SAPT Results
  --------------------------------------------------------------------------------------------------------
    Electrostatics                 -0.04089354 [mEh]      -0.02566108 [kcal/mol]      -0.10736598 [kJ/mol]
      Elst10,r                     -0.04089354 [mEh]      -0.02566108 [kcal/mol]      -0.10736598 [kJ/mol]

    Exchange                        0.00000000 [mEh]       0.00000000 [kcal/mol]       0.00000000 [kJ/mol]
      Exch10                        0.00000000 [mEh]       0.00000000 [kcal/mol]       0.00000000 [kJ/mol]
      Exch10(S^2)                   0.00000000 [mEh]       0.00000000 [kcal/mol]       0.00000000 [kJ/mol]

    Induction                      -0.00008179 [mEh]      -0.00005132 [kcal/mol]      -0.00021473 [kJ/mol]
      Ind20,r                      -0.00008547 [mEh]      -0.00005363 [kcal/mol]      -0.00022440 [kJ/mol]
      Exch-Ind20,r                  0.00000000 [mEh]       0.00000000 [kcal/mol]       0.00000000 [kJ/mol]
      delta HF,r (2)                0.00000368 [mEh]       0.00000231 [kcal/mol]       0.00000967 [kJ/mol]

    Dispersion                     -0.00030807 [mEh]      -0.00019331 [kcal/mol]      -0.00080883 [kJ/mol]
      Disp20                       -0.00030807 [mEh]      -0.00019331 [kcal/mol]      -0.00080883 [kJ/mol]
      Exch-Disp20                   0.00000000 [mEh]       0.00000000 [kcal/mol]       0.00000000 [kJ/mol]
      Disp20 (SS)                  -0.00015403 [mEh]      -0.00009666 [kcal/mol]      -0.00040441 [kJ/mol]
      Disp20 (OS)                  -0.00015403 [mEh]      -0.00009666 [kcal/mol]      -0.00040441 [kJ/mol]
      Exch-Disp20 (SS)              0.00000000 [mEh]       0.00000000 [kcal/mol]       0.00000000 [kJ/mol]
      Exch-Disp20 (OS)              0.00000000 [mEh]       0.00000000 [kcal/mol]       0.00000000 [kJ/mol]

  Total HF                         -0.04097533 [mEh]      -0.02571241 [kcal/mol]      -0.10758071 [kJ/mol]
  Total SAPT0                      -0.04128339 [mEh]      -0.02590572 [kcal/mol]      -0.10838954 [kJ/mol]

  Special recipe for scaled SAPT0 (see Manual):
    Electrostatics sSAPT0          -0.04089354 [mEh]      -0.02566108 [kcal/mol]      -0.10736598 [kJ/mol]
    Exchange sSAPT0                 0.00000000 [mEh]       0.00000000 [kcal/mol]       0.00000000 [kJ/mol]
    Induction sSAPT0               -0.00008179 [mEh]      -0.00005132 [kcal/mol]      -0.00021473 [kJ/mol]
    Dispersion sSAPT0              -0.00030807 [mEh]      -0.00019331 [kcal/mol]      -0.00080883 [kJ/mol]
  Total sSAPT0                     -0.04128339 [mEh]      -0.02590572 [kcal/mol]      -0.10838954 [kJ/mol]
  --------------------------------------------------------------------------------------------------------

*** Psi4 exiting successfully. Buy a developer a beer!
