                               Psi4 1.4rc3

  ==> Input File <==

--------------------------------------------------------------------------
# PSI4 file produced by CrystaLattE

# Generated from:               imidazole.xyz
# Psithon input for N-mer:      2mer-0+157
# Number of atoms per monomer:  [9, 9]
# Number of replicas:           2
# COM priority:                 3.178712442447e-05
# Minimum COM separations:      16.705
# Separation priority:          6.235542776565e-05
# Minimum monomer separations:  13.345
# Cutoff priority:              2.472667290519e-06
# Nuclear repulsion energy:     369.32587493826895

memory 7 GB

molecule Dimer_0_157 {
  N           -4.29309621      -3.06837431       5.30516231
  N           -2.15847371      -2.92627296       1.72037448
  H           -0.02545587      -6.35903575       2.22046452
  H           -2.68566968      -6.53260241       6.61445954
  H           -4.74388423      -0.00609006       2.75615968
  H           -1.41045540      -2.24723147       0.00000000
  C           -1.43737991      -5.07504848       2.94065891
  C           -2.76900782      -5.14609916       5.13522880
  C           -3.85955036      -1.77728198       3.21093411
--
  N           -5.61152421       2.00667417     -28.96961726
  N           -7.74614671       2.14877553     -25.38482943
  H           -9.87916456      -1.28398727     -25.88491947
  H           -7.21895074      -1.45755392     -30.27891449
  H           -5.16073620       5.06895842     -26.42061463
  H           -8.49416502       2.82781701     -23.66445495
  C           -8.46724051      -0.00000000     -26.60511386
  C           -7.13561260      -0.07105068     -28.79968375
  C           -6.04507006       3.29776650     -26.87538906
units = au
no_com
no_reorient
}

set {
  e_convergence 10
  d_convergence 10
  scf_type df
  mp2_type df
  cc_type df
  freeze_core true
}

energy('sapt0/aug-cc-pvdz')

--------------------------------------------------------------------------

  //              Dimer HF             //
    Molecular point group: c1
  Charge       = 0
  Multiplicity = 1
  Basis Set: AUG-CC-PVDZ
    Blend: AUG-CC-PVDZ
  Basis Set: (AUG-CC-PVDZ AUX)
    Blend: AUG-CC-PVDZ-JKFIT
  @DF-RHF Final Energy:  -449.68733120545164
    Total Energy =                       -449.6873312054516418
  //            Monomer A HF           //
    Molecular point group: c1
  Multiplicity = 1
  Basis Set: AUG-CC-PVDZ
    Blend: AUG-CC-PVDZ
  Basis Set: (AUG-CC-PVDZ AUX)
    Blend: AUG-CC-PVDZ-JKFIT
  @DF-RHF Final Energy:  -224.84369627883490
    Total Energy =                       -224.8436962788348978
  //            Monomer B HF           //
    Molecular point group: c1

    Geometry (in Bohr), charge = 0, multiplicity = 1:

       Center              X                  Y                   Z               Mass
    ------------   -----------------  -----------------  -----------------  -----------------
      Gh(N)          -4.293096210000    -3.068374310000     5.305162310000    14.003074004430
      Gh(N)          -2.158473710000    -2.926272960000     1.720374480000    14.003074004430
      Gh(H)          -0.025455870000    -6.359035750000     2.220464520000     1.007825032230
      Gh(H)          -2.685669680000    -6.532602410000     6.614459540000     1.007825032230
      Gh(H)          -4.743884230000    -0.006090060000     2.756159680000     1.007825032230
      Gh(H)          -1.410455400000    -2.247231470000     0.000000000000     1.007825032230
      Gh(C)          -1.437379910000    -5.075048480000     2.940658910000    12.000000000000
      Gh(C)          -2.769007820000    -5.146099160000     5.135228800000    12.000000000000
      Gh(C)          -3.859550360000    -1.777281980000     3.210934110000    12.000000000000
         N           -5.611524210000     2.006674170000   -28.969617260000    14.003074004430
         N           -7.746146710000     2.148775530000   -25.384829430000    14.003074004430
         H           -9.879164560000    -1.283987270000   -25.884919470000     1.007825032230
         H           -7.218950740000    -1.457553920000   -30.278914490000     1.007825032230
         H           -5.160736200000     5.068958420000   -26.420614630000     1.007825032230
         H           -8.494165020000     2.827817010000   -23.664454950000     1.007825032230
         C           -8.467240510000     0.000000000000   -26.605113860000    12.000000000000
         C           -7.135612600000    -0.071050680000   -28.799683750000    12.000000000000
         C           -6.045070060000     3.297766500000   -26.875389060000    12.000000000000

  Charge       = 0
  Multiplicity = 1
  Basis Set: AUG-CC-PVDZ
    Blend: AUG-CC-PVDZ
  Basis Set: (AUG-CC-PVDZ AUX)
    Blend: AUG-CC-PVDZ-JKFIT

    Orbital Energies [Eh]
    ---------------------

    Doubly Occupied:

       1A    -15.637071     2A    -15.551216     3A    -11.300916
       4A    -11.263160     5A    -11.245653     6A     -1.352867
       7A     -1.169098     8A     -1.012098     9A     -0.824390
      10A     -0.803731    11A     -0.760666    12A     -0.610096
      13A     -0.603958    14A     -0.601922    15A     -0.570942
      16A     -0.435483    17A     -0.400464    18A     -0.320685

  @DF-RHF Final Energy:  -224.84369627912585

   => Energetics <=

    Nuclear Repulsion Energy =            164.0866959728215022
    One-Electron Energy =                -628.9319562622656576
    Two-Electron Energy =                 240.0015640103182761
    Total Energy =                       -224.8436962791258509

  Dipole Moment: [D]
     X:    -2.0431      Y:     0.4150      Z:     3.3867     Total:     3.9769

    SAPT Results
  --------------------------------------------------------------------------------------------------------
    Electrostatics                  0.06167723 [mEh]       0.03870305 [kcal/mol]       0.16193354 [kJ/mol]
      Elst10,r                      0.06167723 [mEh]       0.03870305 [kcal/mol]       0.16193354 [kJ/mol]

    Exchange                        0.00000000 [mEh]       0.00000000 [kcal/mol]       0.00000000 [kJ/mol]
      Exch10                        0.00000000 [mEh]       0.00000000 [kcal/mol]       0.00000000 [kJ/mol]
      Exch10(S^2)                   0.00000000 [mEh]       0.00000000 [kcal/mol]       0.00000000 [kJ/mol]

    Induction                      -0.00032472 [mEh]      -0.00020376 [kcal/mol]      -0.00085255 [kJ/mol]
      Ind20,r                      -0.00033043 [mEh]      -0.00020734 [kcal/mol]      -0.00086753 [kJ/mol]
      Exch-Ind20,r                  0.00000000 [mEh]       0.00000000 [kcal/mol]       0.00000000 [kJ/mol]
      delta HF,r (2)                0.00000571 [mEh]       0.00000358 [kcal/mol]       0.00001498 [kJ/mol]

    Dispersion                     -0.00130513 [mEh]      -0.00081898 [kcal/mol]      -0.00342661 [kJ/mol]
      Disp20                       -0.00130513 [mEh]      -0.00081898 [kcal/mol]      -0.00342661 [kJ/mol]
      Exch-Disp20                   0.00000000 [mEh]       0.00000000 [kcal/mol]       0.00000000 [kJ/mol]
      Disp20 (SS)                  -0.00065256 [mEh]      -0.00040949 [kcal/mol]      -0.00171331 [kJ/mol]
      Disp20 (OS)                  -0.00065256 [mEh]      -0.00040949 [kcal/mol]      -0.00171331 [kJ/mol]
      Exch-Disp20 (SS)              0.00000000 [mEh]       0.00000000 [kcal/mol]       0.00000000 [kJ/mol]
      Exch-Disp20 (OS)              0.00000000 [mEh]       0.00000000 [kcal/mol]       0.00000000 [kJ/mol]

  Total HF                          0.06135251 [mEh]       0.03849928 [kcal/mol]       0.16108099 [kJ/mol]
  Total SAPT0                       0.06004738 [mEh]       0.03768030 [kcal/mol]       0.15765438 [kJ/mol]

  Special recipe for scaled SAPT0 (see Manual):
    Electrostatics sSAPT0           0.06167723 [mEh]       0.03870305 [kcal/mol]       0.16193354 [kJ/mol]
    Exchange sSAPT0                 0.00000000 [mEh]       0.00000000 [kcal/mol]       0.00000000 [kJ/mol]
    Induction sSAPT0               -0.00032472 [mEh]      -0.00020376 [kcal/mol]      -0.00085255 [kJ/mol]
    Dispersion sSAPT0              -0.00130513 [mEh]      -0.00081898 [kcal/mol]      -0.00342661 [kJ/mol]
  Total sSAPT0                      0.06004738 [mEh]       0.03768030 [kcal/mol]       0.15765438 [kJ/mol]
  --------------------------------------------------------------------------------------------------------

*** Psi4 exiting successfully. Buy a developer a beer!
