                               Psi4 1.4rc3

  ==> Input File <==

--------------------------------------------------------------------------
# PSI4 file produced by CrystaLattE

# Generated from:               imidazole.xyz
# Psithon input for N-mer:      2mer-0+333
# Number of atoms per monomer:  [9, 9]
# Number of replicas:           2
# COM priority:                 1.419803897912e-05
# Minimum COM separations:      21.854
# Separation priority:          2.249984223209e-05
# Minimum monomer separations:  18.745
# Cutoff priority:              6.351933808901e-07
# Nuclear repulsion energy:     359.5446192930684

memory 7 GB

molecule Dimer_0_333 {
  N           -4.29309621      -3.06837431       5.30516231
  N           -2.15847371      -2.92627296       1.72037448
  H           -0.02545587      -6.35903575       2.22046452
  H           -2.68566968      -6.53260241       6.61445954
  H           -4.74388423      -0.00609006       2.75615968
  H           -1.41045540      -2.24723147       0.00000000
  C           -1.43737991      -5.07504848       2.94065891
  C           -2.76900782      -5.14609916       5.13522880
  C           -3.85955036      -1.77728198       3.21093411
--
  N           28.84565259      19.19687839      -2.78690955
  N           30.98027509      19.05477703      -6.37169738
  H           33.11329293      22.48753983      -5.87160734
  H           30.45307912      22.66110648      -1.47761232
  H           28.39486458      16.13459414      -5.33591219
  H           31.72829340      18.37573555      -8.09207186
  C           31.70136889      21.20355256      -5.15141295
  C           30.36974098      21.27460324      -2.95684306
  C           29.27919844      17.90578606      -4.88113775
units = au
no_com
no_reorient
}

set {
  e_convergence 10
  d_convergence 10
  scf_type df
  mp2_type df
  cc_type df
  freeze_core true
}

energy('sapt0/aug-cc-pvdz')

--------------------------------------------------------------------------

  //              Dimer HF             //
    Molecular point group: c1
  Charge       = 0
  Multiplicity = 1
  Basis Set: AUG-CC-PVDZ
    Blend: AUG-CC-PVDZ
  Basis Set: (AUG-CC-PVDZ AUX)
    Blend: AUG-CC-PVDZ-JKFIT
  @DF-RHF Final Energy:  -449.68738681656379
    Total Energy =                       -449.6873868165637873
  //            Monomer A HF           //
    Molecular point group: c1
  Multiplicity = 1
  Basis Set: AUG-CC-PVDZ
    Blend: AUG-CC-PVDZ
  Basis Set: (AUG-CC-PVDZ AUX)
    Blend: AUG-CC-PVDZ-JKFIT
  @DF-RHF Final Energy:  -224.84369627843245
    Total Energy =                       -224.8436962784324464
  //            Monomer B HF           //
    Molecular point group: c1

    Geometry (in Bohr), charge = 0, multiplicity = 1:

       Center              X                  Y                   Z               Mass
    ------------   -----------------  -----------------  -----------------  -----------------
      Gh(N)          -4.293096210000    -3.068374310000     5.305162310000    14.003074004430
      Gh(N)          -2.158473710000    -2.926272960000     1.720374480000    14.003074004430
      Gh(H)          -0.025455870000    -6.359035750000     2.220464520000     1.007825032230
      Gh(H)          -2.685669680000    -6.532602410000     6.614459540000     1.007825032230
      Gh(H)          -4.743884230000    -0.006090060000     2.756159680000     1.007825032230
      Gh(H)          -1.410455400000    -2.247231470000     0.000000000000     1.007825032230
      Gh(C)          -1.437379910000    -5.075048480000     2.940658910000    12.000000000000
      Gh(C)          -2.769007820000    -5.146099160000     5.135228800000    12.000000000000
      Gh(C)          -3.859550360000    -1.777281980000     3.210934110000    12.000000000000
         N           28.845652590000    19.196878390000    -2.786909550000    14.003074004430
         N           30.980275090000    19.054777030000    -6.371697380000    14.003074004430
         H           33.113292930000    22.487539830000    -5.871607340000     1.007825032230
         H           30.453079120000    22.661106480000    -1.477612320000     1.007825032230
         H           28.394864580000    16.134594140000    -5.335912190000     1.007825032230
         H           31.728293400000    18.375735550000    -8.092071860000     1.007825032230
         C           31.701368890000    21.203552560000    -5.151412950000    12.000000000000
         C           30.369740980000    21.274603240000    -2.956843060000    12.000000000000
         C           29.279198440000    17.905786060000    -4.881137750000    12.000000000000

  Charge       = 0
  Multiplicity = 1
  Basis Set: AUG-CC-PVDZ
    Blend: AUG-CC-PVDZ
  Basis Set: (AUG-CC-PVDZ AUX)
    Blend: AUG-CC-PVDZ-JKFIT

    Orbital Energies [Eh]
    ---------------------

    Doubly Occupied:

       1A    -15.637071     2A    -15.551216     3A    -11.300916
       4A    -11.263160     5A    -11.245653     6A     -1.352867
       7A     -1.169098     8A     -1.012098     9A     -0.824390
      10A     -0.803731    11A     -0.760666    12A     -0.610096
      13A     -0.603958    14A     -0.601922    15A     -0.570942
      16A     -0.435483    17A     -0.400464    18A     -0.320685

  @DF-RHF Final Energy:  -224.84369627774703

   => Energetics <=

    Nuclear Repulsion Energy =            164.0866959844954351
    One-Electron Energy =                -628.9319562751313697
    Two-Electron Energy =                 240.0015640128888776
    Total Energy =                       -224.8436962777470285

  Dipole Moment: [D]
     X:     2.0431      Y:    -0.4150      Z:    -3.3867     Total:     3.9769

    SAPT Results
  --------------------------------------------------------------------------------------------------------
    Electrostatics                  0.00578239 [mEh]       0.00362850 [kcal/mol]       0.01518166 [kJ/mol]
      Elst10,r                      0.00578239 [mEh]       0.00362850 [kcal/mol]       0.01518166 [kJ/mol]

    Exchange                       -0.00000000 [mEh]      -0.00000000 [kcal/mol]      -0.00000000 [kJ/mol]
      Exch10                       -0.00000000 [mEh]      -0.00000000 [kcal/mol]      -0.00000000 [kJ/mol]
      Exch10(S^2)                  -0.00000000 [mEh]      -0.00000000 [kcal/mol]      -0.00000000 [kJ/mol]

    Induction                      -0.00004277 [mEh]      -0.00002684 [kcal/mol]      -0.00011230 [kJ/mol]
      Ind20,r                      -0.00004584 [mEh]      -0.00002876 [kcal/mol]      -0.00012035 [kJ/mol]
      Exch-Ind20,r                  0.00000000 [mEh]       0.00000000 [kcal/mol]       0.00000000 [kJ/mol]
      delta HF,r (2)                0.00000306 [mEh]       0.00000192 [kcal/mol]       0.00000805 [kJ/mol]

    Dispersion                     -0.00024695 [mEh]      -0.00015497 [kcal/mol]      -0.00064837 [kJ/mol]
      Disp20                       -0.00024695 [mEh]      -0.00015497 [kcal/mol]      -0.00064837 [kJ/mol]
      Exch-Disp20                   0.00000000 [mEh]       0.00000000 [kcal/mol]       0.00000000 [kJ/mol]
      Disp20 (SS)                  -0.00012348 [mEh]      -0.00007748 [kcal/mol]      -0.00032419 [kJ/mol]
      Disp20 (OS)                  -0.00012348 [mEh]      -0.00007748 [kcal/mol]      -0.00032419 [kJ/mol]
      Exch-Disp20 (SS)              0.00000000 [mEh]       0.00000000 [kcal/mol]       0.00000000 [kJ/mol]
      Exch-Disp20 (OS)              0.00000000 [mEh]       0.00000000 [kcal/mol]       0.00000000 [kJ/mol]

  Total HF                          0.00573962 [mEh]       0.00360166 [kcal/mol]       0.01506936 [kJ/mol]
  Total SAPT0                       0.00549266 [mEh]       0.00344670 [kcal/mol]       0.01442098 [kJ/mol]

  Special recipe for scaled SAPT0 (see Manual):
    Electrostatics sSAPT0           0.00578239 [mEh]       0.00362850 [kcal/mol]       0.01518166 [kJ/mol]
    Exchange sSAPT0                -0.00000000 [mEh]      -0.00000000 [kcal/mol]      -0.00000000 [kJ/mol]
    Induction sSAPT0               -0.00004277 [mEh]      -0.00002684 [kcal/mol]      -0.00011230 [kJ/mol]
    Dispersion sSAPT0              -0.00024695 [mEh]      -0.00015497 [kcal/mol]      -0.00064837 [kJ/mol]
  Total sSAPT0                      0.00549266 [mEh]       0.00344670 [kcal/mol]       0.01442098 [kJ/mol]
  --------------------------------------------------------------------------------------------------------

*** Psi4 exiting successfully. Buy a developer a beer!
