                               Psi4 1.4rc3

  ==> Input File <==

--------------------------------------------------------------------------
# PSI4 file produced by CrystaLattE

# Generated from:               imidazole.xyz
# Psithon input for N-mer:      2mer-0+104
# Number of atoms per monomer:  [9, 9]
# Number of replicas:           1
# COM priority:                 5.586775769210e-05
# Minimum COM separations:      13.842
# Separation priority:          1.604568203266e-04
# Minimum monomer separations:  9.738
# Cutoff priority:              8.719218795190e-06
# Nuclear repulsion energy:     377.8136301084443

memory 7 GB

molecule Dimer_0_104 {
  N           -4.29309621      -3.06837431       5.30516231
  N           -2.15847371      -2.92627296       1.72037448
  H           -0.02545587      -6.35903575       2.22046452
  H           -2.68566968      -6.53260241       6.61445954
  H           -4.74388423      -0.00609006       2.75615968
  H           -1.41045540      -2.24723147       0.00000000
  C           -1.43737991      -5.07504848       2.94065891
  C           -2.76900782      -5.14609916       5.13522880
  C           -3.85955036      -1.77728198       3.21093411
--
  N          -19.05808204      14.12182991      -4.69340168
  N          -21.19270454      13.97972855      -1.10861384
  H          -23.32572239      17.41249134      -1.60870389
  H          -20.66550857      17.58605800      -6.00269891
  H          -18.60729403      11.05954565      -2.14439904
  H          -21.94072285      13.30068706       0.61176063
  C          -21.91379834      16.12850408      -2.32889828
  C          -20.58217043      16.19955476      -4.52346817
  C          -19.49162790      12.83073757      -2.59917348
units = au
no_com
no_reorient
}

set {
  e_convergence 10
  d_convergence 10
  scf_type df
  mp2_type df
  cc_type df
  freeze_core true
}

energy('sapt0/aug-cc-pvdz')

--------------------------------------------------------------------------

  //              Dimer HF             //
    Molecular point group: c1
  Charge       = 0
  Multiplicity = 1
  Basis Set: AUG-CC-PVDZ
    Blend: AUG-CC-PVDZ
  Basis Set: (AUG-CC-PVDZ AUX)
    Blend: AUG-CC-PVDZ-JKFIT
  @DF-RHF Final Energy:  -449.68757640638847
    Total Energy =                       -449.6875764063884162
  //            Monomer A HF           //
    Molecular point group: c1
  Multiplicity = 1
  Basis Set: AUG-CC-PVDZ
    Blend: AUG-CC-PVDZ
  Basis Set: (AUG-CC-PVDZ AUX)
    Blend: AUG-CC-PVDZ-JKFIT
  @DF-RHF Final Energy:  -224.84369664245273
    Total Energy =                       -224.8436966424527270
  //            Monomer B HF           //
    Molecular point group: c1

    Geometry (in Bohr), charge = 0, multiplicity = 1:

       Center              X                  Y                   Z               Mass
    ------------   -----------------  -----------------  -----------------  -----------------
      Gh(N)          -4.293096210000    -3.068374310000     5.305162310000    14.003074004430
      Gh(N)          -2.158473710000    -2.926272960000     1.720374480000    14.003074004430
      Gh(H)          -0.025455870000    -6.359035750000     2.220464520000     1.007825032230
      Gh(H)          -2.685669680000    -6.532602410000     6.614459540000     1.007825032230
      Gh(H)          -4.743884230000    -0.006090060000     2.756159680000     1.007825032230
      Gh(H)          -1.410455400000    -2.247231470000     0.000000000000     1.007825032230
      Gh(C)          -1.437379910000    -5.075048480000     2.940658910000    12.000000000000
      Gh(C)          -2.769007820000    -5.146099160000     5.135228800000    12.000000000000
      Gh(C)          -3.859550360000    -1.777281980000     3.210934110000    12.000000000000
         N          -19.058082040000    14.121829910000    -4.693401680000    14.003074004430
         N          -21.192704540000    13.979728550000    -1.108613840000    14.003074004430
         H          -23.325722390000    17.412491340000    -1.608703890000     1.007825032230
         H          -20.665508570000    17.586058000000    -6.002698910000     1.007825032230
         H          -18.607294030000    11.059545650000    -2.144399040000     1.007825032230
         H          -21.940722850000    13.300687060000     0.611760630000     1.007825032230
         C          -21.913798340000    16.128504080000    -2.328898280000    12.000000000000
         C          -20.582170430000    16.199554760000    -4.523468170000    12.000000000000
         C          -19.491627900000    12.830737570000    -2.599173480000    12.000000000000

  Charge       = 0
  Multiplicity = 1
  Basis Set: AUG-CC-PVDZ
    Blend: AUG-CC-PVDZ
  Basis Set: (AUG-CC-PVDZ AUX)
    Blend: AUG-CC-PVDZ-JKFIT

    Orbital Energies [Eh]
    ---------------------

    Doubly Occupied:

       1A    -15.637071     2A    -15.551216     3A    -11.300916
       4A    -11.263160     5A    -11.245653     6A     -1.352867
       7A     -1.169098     8A     -1.012098     9A     -0.824389
      10A     -0.803731    11A     -0.760666    12A     -0.610096
      13A     -0.603958    14A     -0.601922    15A     -0.570942
      16A     -0.435483    17A     -0.400464    18A     -0.320685

  @DF-RHF Final Energy:  -224.84369664254470

   => Energetics <=

    Nuclear Repulsion Energy =            164.0866958084465352
    One-Electron Energy =                -628.9319590639850048
    Two-Electron Energy =                 240.0015666129937983
    Total Energy =                       -224.8436966425446997

  Dipole Moment: [D]
     X:    -2.0431      Y:    -0.4150      Z:     3.3867     Total:     3.9769

    SAPT Results
  --------------------------------------------------------------------------------------------------------
    Electrostatics                 -0.18251799 [mEh]      -0.11453177 [kcal/mol]      -0.47920091 [kJ/mol]
      Elst10,r                     -0.18251799 [mEh]      -0.11453177 [kcal/mol]      -0.47920091 [kJ/mol]

    Exchange                        0.00000017 [mEh]       0.00000011 [kcal/mol]       0.00000044 [kJ/mol]
      Exch10                        0.00000017 [mEh]       0.00000011 [kcal/mol]       0.00000044 [kJ/mol]
      Exch10(S^2)                   0.00000017 [mEh]       0.00000011 [kcal/mol]       0.00000044 [kJ/mol]

    Induction                      -0.00060357 [mEh]      -0.00037875 [kcal/mol]      -0.00158468 [kJ/mol]
      Ind20,r                      -0.00056772 [mEh]      -0.00035625 [kcal/mol]      -0.00149055 [kJ/mol]
      Exch-Ind20,r                  0.00000044 [mEh]       0.00000027 [kcal/mol]       0.00000115 [kJ/mol]
      delta HF,r (2)               -0.00003629 [mEh]      -0.00002277 [kcal/mol]      -0.00009528 [kJ/mol]

    Dispersion                     -0.00469191 [mEh]      -0.00294422 [kcal/mol]      -0.01231860 [kJ/mol]
      Disp20                       -0.00469195 [mEh]      -0.00294425 [kcal/mol]      -0.01231872 [kJ/mol]
      Exch-Disp20                   0.00000004 [mEh]       0.00000003 [kcal/mol]       0.00000012 [kJ/mol]
      Disp20 (SS)                  -0.00234598 [mEh]      -0.00147212 [kcal/mol]      -0.00615936 [kJ/mol]
      Disp20 (OS)                  -0.00234598 [mEh]      -0.00147212 [kcal/mol]      -0.00615936 [kJ/mol]
      Exch-Disp20 (SS)              0.00000004 [mEh]       0.00000002 [kcal/mol]       0.00000009 [kJ/mol]
      Exch-Disp20 (OS)              0.00000001 [mEh]       0.00000001 [kcal/mol]       0.00000002 [kJ/mol]

  Total HF                         -0.18312139 [mEh]      -0.11491041 [kcal/mol]      -0.48078515 [kJ/mol]
  Total SAPT0                      -0.18781330 [mEh]      -0.11785462 [kcal/mol]      -0.49310375 [kJ/mol]

  Special recipe for scaled SAPT0 (see Manual):
    Electrostatics sSAPT0          -0.18251799 [mEh]      -0.11453177 [kcal/mol]      -0.47920091 [kJ/mol]
    Exchange sSAPT0                 0.00000017 [mEh]       0.00000011 [kcal/mol]       0.00000044 [kJ/mol]
    Induction sSAPT0               -0.00060357 [mEh]      -0.00037875 [kcal/mol]      -0.00158468 [kJ/mol]
    Dispersion sSAPT0              -0.00469191 [mEh]      -0.00294422 [kcal/mol]      -0.01231860 [kJ/mol]
  Total sSAPT0                     -0.18781330 [mEh]      -0.11785462 [kcal/mol]      -0.49310375 [kJ/mol]
  --------------------------------------------------------------------------------------------------------

*** Psi4 exiting successfully. Buy a developer a beer!
