                               Psi4 1.4rc3

  ==> Input File <==

--------------------------------------------------------------------------
# PSI4 file produced by CrystaLattE

# Generated from:               imidazole.xyz
# Psithon input for N-mer:      2mer-0+12
# Number of atoms per monomer:  [9, 9]
# Number of replicas:           2
# COM priority:                 2.164395011655e-04
# Minimum COM separations:      8.814
# Separation priority:          7.252279645501e-04
# Minimum monomer separations:  5.890
# Cutoff priority:              6.515774654565e-05
# Nuclear repulsion energy:     406.1226019046163

memory 7 GB

molecule Dimer_0_12 {
  N           -4.29309621      -3.06837431       5.30516231
  N           -2.15847371      -2.92627296       1.72037448
  H           -0.02545587      -6.35903575       2.22046452
  H           -2.68566968      -6.53260241       6.61445954
  H           -4.74388423      -0.00609006       2.75615968
  H           -1.41045540      -2.24723147       0.00000000
  C           -1.43737991      -5.07504848       2.94065891
  C           -2.76900782      -5.14609916       5.13522880
  C           -3.85955036      -1.77728198       3.21093411
--
  N            5.11629487      12.15677114       3.39867018
  N            2.98167237      12.29887249       6.98345802
  H            0.84865452       8.86610970       6.48336797
  H            3.50886834       8.69254304       2.08937295
  H            5.56708288      15.21905539       5.94767282
  H            2.23365406      12.97791398       8.70383249
  C            2.26057857      10.15009697       5.76317358
  C            3.59220648      10.07904629       3.56860369
  C            4.68274902      13.44786347       5.49289838
units = au
no_com
no_reorient
}

set {
  e_convergence 10
  d_convergence 10
  scf_type df
  mp2_type df
  cc_type df
  freeze_core true
}

energy('sapt0/aug-cc-pvdz')

--------------------------------------------------------------------------

  //              Dimer HF             //
    Molecular point group: c1
  Charge       = 0
  Multiplicity = 1
  Basis Set: AUG-CC-PVDZ
    Blend: AUG-CC-PVDZ
  Basis Set: (AUG-CC-PVDZ AUX)
    Blend: AUG-CC-PVDZ-JKFIT
  @DF-RHF Final Energy:  -449.68777004862500
    Total Energy =                       -449.6877700486249978
  //            Monomer A HF           //
    Molecular point group: c1
  Multiplicity = 1
  Basis Set: AUG-CC-PVDZ
    Blend: AUG-CC-PVDZ
  Basis Set: (AUG-CC-PVDZ AUX)
    Blend: AUG-CC-PVDZ-JKFIT
  @DF-RHF Final Energy:  -224.84371031072664
    Total Energy =                       -224.8437103107266353
  //            Monomer B HF           //
    Molecular point group: c1

    Geometry (in Bohr), charge = 0, multiplicity = 1:

       Center              X                  Y                   Z               Mass
    ------------   -----------------  -----------------  -----------------  -----------------
      Gh(N)          -4.293096210000    -3.068374310000     5.305162310000    14.003074004430
      Gh(N)          -2.158473710000    -2.926272960000     1.720374480000    14.003074004430
      Gh(H)          -0.025455870000    -6.359035750000     2.220464520000     1.007825032230
      Gh(H)          -2.685669680000    -6.532602410000     6.614459540000     1.007825032230
      Gh(H)          -4.743884230000    -0.006090060000     2.756159680000     1.007825032230
      Gh(H)          -1.410455400000    -2.247231470000     0.000000000000     1.007825032230
      Gh(C)          -1.437379910000    -5.075048480000     2.940658910000    12.000000000000
      Gh(C)          -2.769007820000    -5.146099160000     5.135228800000    12.000000000000
      Gh(C)          -3.859550360000    -1.777281980000     3.210934110000    12.000000000000
         N            5.116294870000    12.156771140000     3.398670180000    14.003074004430
         N            2.981672370000    12.298872490000     6.983458020000    14.003074004430
         H            0.848654520000     8.866109700000     6.483367970000     1.007825032230
         H            3.508868340000     8.692543040000     2.089372950000     1.007825032230
         H            5.567082880000    15.219055390000     5.947672820000     1.007825032230
         H            2.233654060000    12.977913980000     8.703832490000     1.007825032230
         C            2.260578570000    10.150096970000     5.763173580000    12.000000000000
         C            3.592206480000    10.079046290000     3.568603690000    12.000000000000
         C            4.682749020000    13.447863470000     5.492898380000    12.000000000000

  Charge       = 0
  Multiplicity = 1
  Basis Set: AUG-CC-PVDZ
    Blend: AUG-CC-PVDZ
  Basis Set: (AUG-CC-PVDZ AUX)
    Blend: AUG-CC-PVDZ-JKFIT

    Orbital Energies [Eh]
    ---------------------

    Doubly Occupied:

       1A    -15.637074     2A    -15.551215     3A    -11.300915
       4A    -11.263157     5A    -11.245652     6A     -1.352867
       7A     -1.169099     8A     -1.012098     9A     -0.824390
      10A     -0.803732    11A     -0.760668    12A     -0.610096
      13A     -0.603958    14A     -0.601924    15A     -0.570943
      16A     -0.435484    17A     -0.400465    18A     -0.320685

  @DF-RHF Final Energy:  -224.84371110252579

   => Energetics <=

    Nuclear Repulsion Energy =            164.0866958819970591
    One-Electron Energy =                -628.9319702369633660
    Two-Electron Energy =                 240.0015632524405191
    Total Energy =                       -224.8437111025257877

  Dipole Moment: [D]
     X:    -2.0432      Y:     0.4147      Z:     3.3867     Total:     3.9770

    SAPT Results
  --------------------------------------------------------------------------------------------------------
    Electrostatics                 -0.34042533 [mEh]      -0.21362012 [kcal/mol]      -0.89378659 [kJ/mol]
      Elst10,r                     -0.34042533 [mEh]      -0.21362012 [kcal/mol]      -0.89378659 [kJ/mol]

    Exchange                        0.00003667 [mEh]       0.00002301 [kcal/mol]       0.00009628 [kJ/mol]
      Exch10                        0.00003667 [mEh]       0.00002301 [kcal/mol]       0.00009628 [kJ/mol]
      Exch10(S^2)                   0.00003667 [mEh]       0.00002301 [kcal/mol]       0.00009628 [kJ/mol]

    Induction                      -0.00824671 [mEh]      -0.00517489 [kcal/mol]      -0.02165174 [kJ/mol]
      Ind20,r                      -0.00816588 [mEh]      -0.00512417 [kcal/mol]      -0.02143952 [kJ/mol]
      Exch-Ind20,r                  0.00002506 [mEh]       0.00001573 [kcal/mol]       0.00006580 [kJ/mol]
      delta HF,r (2)               -0.00010589 [mEh]      -0.00006645 [kcal/mol]      -0.00027802 [kJ/mol]

    Dispersion                     -0.07740059 [mEh]      -0.04856960 [kcal/mol]      -0.20321521 [kJ/mol]
      Disp20                       -0.07741041 [mEh]      -0.04857577 [kcal/mol]      -0.20324100 [kJ/mol]
      Exch-Disp20                   0.00000982 [mEh]       0.00000616 [kcal/mol]       0.00002579 [kJ/mol]
      Disp20 (SS)                  -0.03870520 [mEh]      -0.02428788 [kcal/mol]      -0.10162050 [kJ/mol]
      Disp20 (OS)                  -0.03870520 [mEh]      -0.02428788 [kcal/mol]      -0.10162050 [kJ/mol]
      Exch-Disp20 (SS)              0.00000742 [mEh]       0.00000466 [kcal/mol]       0.00001948 [kJ/mol]
      Exch-Disp20 (OS)              0.00000240 [mEh]       0.00000151 [kcal/mol]       0.00000631 [kJ/mol]

  Total HF                         -0.34863537 [mEh]      -0.21877200 [kcal/mol]      -0.91534204 [kJ/mol]
  Total SAPT0                      -0.42603596 [mEh]      -0.26734160 [kcal/mol]      -1.11855726 [kJ/mol]

  Special recipe for scaled SAPT0 (see Manual):
    Electrostatics sSAPT0          -0.34042533 [mEh]      -0.21362012 [kcal/mol]      -0.89378659 [kJ/mol]
    Exchange sSAPT0                 0.00003667 [mEh]       0.00002301 [kcal/mol]       0.00009628 [kJ/mol]
    Induction sSAPT0               -0.00824671 [mEh]      -0.00517489 [kcal/mol]      -0.02165174 [kJ/mol]
    Dispersion sSAPT0              -0.07740059 [mEh]      -0.04856960 [kcal/mol]      -0.20321521 [kJ/mol]
  Total sSAPT0                     -0.42603596 [mEh]      -0.26734160 [kcal/mol]      -1.11855726 [kJ/mol]
  --------------------------------------------------------------------------------------------------------

*** Psi4 exiting successfully. Buy a developer a beer!
