                               Psi4 1.4rc3

  ==> Input File <==

--------------------------------------------------------------------------
# PSI4 file produced by CrystaLattE

# Generated from:               imidazole.xyz
# Psithon input for N-mer:      2mer-0+190
# Number of atoms per monomer:  [9, 9]
# Number of replicas:           2
# COM priority:                 2.856136425681e-05
# Minimum COM separations:      17.312
# Separation priority:          6.094013011700e-05
# Minimum monomer separations:  13.447
# Cutoff priority:              2.398121427486e-06
# Nuclear repulsion energy:     367.8931296726047

memory 7 GB

molecule Dimer_0_190 {
  N           -4.29309621      -3.06837431       5.30516231
  N           -2.15847371      -2.92627296       1.72037448
  H           -0.02545587      -6.35903575       2.22046452
  H           -2.68566968      -6.53260241       6.61445954
  H           -4.74388423      -0.00609006       2.75615968
  H           -1.41045540      -2.24723147       0.00000000
  C           -1.43737991      -5.07504848       2.94065891
  C           -2.76900782      -5.14609916       5.13522880
  C           -3.85955036      -1.77728198       3.21093411
--
  N            9.15346162     -21.40350947     -18.97105327
  N           11.28808412     -21.54561083     -22.55584110
  H           13.42110197     -18.11284803     -22.05575106
  H           10.76088815     -17.93928138     -17.66175604
  H            8.70267361     -24.46579372     -21.52005591
  H           12.03610243     -22.22465231     -24.27621558
  C           12.00917792     -19.39683530     -21.33555667
  C           10.67755001     -19.32578462     -19.14098678
  C            9.58700747     -22.69460180     -21.06528147
units = au
no_com
no_reorient
}

set {
  e_convergence 10
  d_convergence 10
  scf_type df
  mp2_type df
  cc_type df
  freeze_core true
}

energy('sapt0/aug-cc-pvdz')

--------------------------------------------------------------------------

  //              Dimer HF             //
    Molecular point group: c1
  Charge       = 0
  Multiplicity = 1
  Basis Set: AUG-CC-PVDZ
    Blend: AUG-CC-PVDZ
  Basis Set: (AUG-CC-PVDZ AUX)
    Blend: AUG-CC-PVDZ-JKFIT
  @DF-RHF Final Energy:  -449.68744678300567
    Total Energy =                       -449.6874467830057256
  //            Monomer A HF           //
    Molecular point group: c1
  Multiplicity = 1
  Basis Set: AUG-CC-PVDZ
    Blend: AUG-CC-PVDZ
  Basis Set: (AUG-CC-PVDZ AUX)
    Blend: AUG-CC-PVDZ-JKFIT
  @DF-RHF Final Energy:  -224.84369627926708
    Total Energy =                       -224.8436962792670784
  //            Monomer B HF           //
    Molecular point group: c1

    Geometry (in Bohr), charge = 0, multiplicity = 1:

       Center              X                  Y                   Z               Mass
    ------------   -----------------  -----------------  -----------------  -----------------
      Gh(N)          -4.293096210000    -3.068374310000     5.305162310000    14.003074004430
      Gh(N)          -2.158473710000    -2.926272960000     1.720374480000    14.003074004430
      Gh(H)          -0.025455870000    -6.359035750000     2.220464520000     1.007825032230
      Gh(H)          -2.685669680000    -6.532602410000     6.614459540000     1.007825032230
      Gh(H)          -4.743884230000    -0.006090060000     2.756159680000     1.007825032230
      Gh(H)          -1.410455400000    -2.247231470000     0.000000000000     1.007825032230
      Gh(C)          -1.437379910000    -5.075048480000     2.940658910000    12.000000000000
      Gh(C)          -2.769007820000    -5.146099160000     5.135228800000    12.000000000000
      Gh(C)          -3.859550360000    -1.777281980000     3.210934110000    12.000000000000
         N            9.153461620000   -21.403509470000   -18.971053270000    14.003074004430
         N           11.288084120000   -21.545610830000   -22.555841100000    14.003074004430
         H           13.421101970000   -18.112848030000   -22.055751060000     1.007825032230
         H           10.760888150000   -17.939281380000   -17.661756040000     1.007825032230
         H            8.702673610000   -24.465793720000   -21.520055910000     1.007825032230
         H           12.036102430000   -22.224652310000   -24.276215580000     1.007825032230
         C           12.009177920000   -19.396835300000   -21.335556670000    12.000000000000
         C           10.677550010000   -19.325784620000   -19.140986780000    12.000000000000
         C            9.587007470000   -22.694601800000   -21.065281470000    12.000000000000

  Charge       = 0
  Multiplicity = 1
  Basis Set: AUG-CC-PVDZ
    Blend: AUG-CC-PVDZ
  Basis Set: (AUG-CC-PVDZ AUX)
    Blend: AUG-CC-PVDZ-JKFIT

    Orbital Energies [Eh]
    ---------------------

    Doubly Occupied:

       1A    -15.637071     2A    -15.551216     3A    -11.300916
       4A    -11.263160     5A    -11.245653     6A     -1.352867
       7A     -1.169098     8A     -1.012098     9A     -0.824390
      10A     -0.803731    11A     -0.760666    12A     -0.610096
      13A     -0.603958    14A     -0.601922    15A     -0.570942
      16A     -0.435483    17A     -0.400464    18A     -0.320685

  @DF-RHF Final Energy:  -224.84369627881557

   => Energetics <=

    Nuclear Repulsion Energy =            164.0866959673596739
    One-Electron Energy =                -628.9319562503312682
    Two-Electron Energy =                 240.0015640041560232
    Total Energy =                       -224.8436962788155711

  Dipole Moment: [D]
     X:     2.0431      Y:    -0.4150      Z:    -3.3867     Total:     3.9769

    SAPT Results
  --------------------------------------------------------------------------------------------------------
    Electrostatics                 -0.05393655 [mEh]      -0.03384570 [kcal/mol]      -0.14161039 [kJ/mol]
      Elst10,r                     -0.05393655 [mEh]      -0.03384570 [kcal/mol]      -0.14161039 [kJ/mol]

    Exchange                        0.00000000 [mEh]       0.00000000 [kcal/mol]       0.00000000 [kJ/mol]
      Exch10                        0.00000000 [mEh]       0.00000000 [kcal/mol]       0.00000000 [kJ/mol]
      Exch10(S^2)                   0.00000000 [mEh]       0.00000000 [kcal/mol]       0.00000000 [kJ/mol]

    Induction                      -0.00028837 [mEh]      -0.00018096 [kcal/mol]      -0.00075713 [kJ/mol]
      Ind20,r                      -0.00029175 [mEh]      -0.00018308 [kcal/mol]      -0.00076600 [kJ/mol]
      Exch-Ind20,r                  0.00000000 [mEh]       0.00000000 [kcal/mol]       0.00000000 [kJ/mol]
      delta HF,r (2)                0.00000338 [mEh]       0.00000212 [kcal/mol]       0.00000887 [kJ/mol]

    Dispersion                     -0.00122771 [mEh]      -0.00077040 [kcal/mol]      -0.00322335 [kJ/mol]
      Disp20                       -0.00122771 [mEh]      -0.00077040 [kcal/mol]      -0.00322335 [kJ/mol]
      Exch-Disp20                   0.00000000 [mEh]       0.00000000 [kcal/mol]       0.00000000 [kJ/mol]
      Disp20 (SS)                  -0.00061386 [mEh]      -0.00038520 [kcal/mol]      -0.00161168 [kJ/mol]
      Disp20 (OS)                  -0.00061386 [mEh]      -0.00038520 [kcal/mol]      -0.00161168 [kJ/mol]
      Exch-Disp20 (SS)              0.00000000 [mEh]       0.00000000 [kcal/mol]       0.00000000 [kJ/mol]
      Exch-Disp20 (OS)              0.00000000 [mEh]       0.00000000 [kcal/mol]       0.00000000 [kJ/mol]

  Total HF                         -0.05422492 [mEh]      -0.03402665 [kcal/mol]      -0.14236752 [kJ/mol]
  Total SAPT0                      -0.05545263 [mEh]      -0.03479705 [kcal/mol]      -0.14559087 [kJ/mol]

  Special recipe for scaled SAPT0 (see Manual):
    Electrostatics sSAPT0          -0.05393655 [mEh]      -0.03384570 [kcal/mol]      -0.14161039 [kJ/mol]
    Exchange sSAPT0                 0.00000000 [mEh]       0.00000000 [kcal/mol]       0.00000000 [kJ/mol]
    Induction sSAPT0               -0.00028837 [mEh]      -0.00018096 [kcal/mol]      -0.00075713 [kJ/mol]
    Dispersion sSAPT0              -0.00122771 [mEh]      -0.00077040 [kcal/mol]      -0.00322335 [kJ/mol]
  Total sSAPT0                     -0.05545263 [mEh]      -0.03479705 [kcal/mol]      -0.14559087 [kJ/mol]
  --------------------------------------------------------------------------------------------------------

*** Psi4 exiting successfully. Buy a developer a beer!
