                               Psi4 1.4rc3

  ==> Input File <==

--------------------------------------------------------------------------
# PSI4 file produced by CrystaLattE

# Generated from:               imidazole.xyz
# Psithon input for N-mer:      2mer-0+537
# Number of atoms per monomer:  [9, 9]
# Number of replicas:           2
# COM priority:                 1.275907426762e-05
# Minimum COM separations:      22.646
# Separation priority:          2.055450440818e-05
# Minimum monomer separations:  19.318
# Cutoff priority:              5.630444473584e-07
# Nuclear repulsion energy:     358.46737819499947

memory 7 GB

molecule Dimer_0_537 {
  N           -4.29309621      -3.06837431       5.30516231
  N           -2.15847371      -2.92627296       1.72037448
  H           -0.02545587      -6.35903575       2.22046452
  H           -2.68566968      -6.53260241       6.61445954
  H           -4.74388423      -0.00609006       2.75615968
  H           -1.41045540      -2.24723147       0.00000000
  C           -1.43737991      -5.07504848       2.94065891
  C           -2.76900782      -5.14609916       5.13522880
  C           -3.85955036      -1.77728198       3.21093411
--
  N          -38.31356861      17.23181962     -10.87898141
  N          -36.17894611      17.37392098     -14.46376924
  H          -34.04592826      13.94115818     -13.96367920
  H          -36.70614208      13.76759152      -9.56968418
  H          -38.76435662      20.29410387     -13.42798405
  H          -35.43092780      18.05296246     -16.18414372
  C          -35.45785231      15.22514545     -13.24348481
  C          -36.78948022      15.15409477     -11.04891492
  C          -37.88002275      18.52291195     -12.97320961
units = au
no_com
no_reorient
}

set {
  e_convergence 10
  d_convergence 10
  scf_type df
  mp2_type df
  cc_type df
  freeze_core true
}

energy('sapt0/aug-cc-pvdz')

--------------------------------------------------------------------------

  //              Dimer HF             //
    Molecular point group: c1
  Charge       = 0
  Multiplicity = 1
  Basis Set: AUG-CC-PVDZ
    Blend: AUG-CC-PVDZ
  Basis Set: (AUG-CC-PVDZ AUX)
    Blend: AUG-CC-PVDZ-JKFIT
  @DF-RHF Final Energy:  -449.68736277624043
    Total Energy =                       -449.6873627762404340
  //            Monomer A HF           //
    Molecular point group: c1
  Multiplicity = 1
  Basis Set: AUG-CC-PVDZ
    Blend: AUG-CC-PVDZ
  Basis Set: (AUG-CC-PVDZ AUX)
    Blend: AUG-CC-PVDZ-JKFIT
  @DF-RHF Final Energy:  -224.84369627778909
    Total Energy =                       -224.8436962777890926
  //            Monomer B HF           //
    Molecular point group: c1

    Geometry (in Bohr), charge = 0, multiplicity = 1:

       Center              X                  Y                   Z               Mass
    ------------   -----------------  -----------------  -----------------  -----------------
      Gh(N)          -4.293096210000    -3.068374310000     5.305162310000    14.003074004430
      Gh(N)          -2.158473710000    -2.926272960000     1.720374480000    14.003074004430
      Gh(H)          -0.025455870000    -6.359035750000     2.220464520000     1.007825032230
      Gh(H)          -2.685669680000    -6.532602410000     6.614459540000     1.007825032230
      Gh(H)          -4.743884230000    -0.006090060000     2.756159680000     1.007825032230
      Gh(H)          -1.410455400000    -2.247231470000     0.000000000000     1.007825032230
      Gh(C)          -1.437379910000    -5.075048480000     2.940658910000    12.000000000000
      Gh(C)          -2.769007820000    -5.146099160000     5.135228800000    12.000000000000
      Gh(C)          -3.859550360000    -1.777281980000     3.210934110000    12.000000000000
         N          -38.313568610000    17.231819620000   -10.878981410000    14.003074004430
         N          -36.178946110000    17.373920980000   -14.463769240000    14.003074004430
         H          -34.045928260000    13.941158180000   -13.963679200000     1.007825032230
         H          -36.706142080000    13.767591520000    -9.569684180000     1.007825032230
         H          -38.764356620000    20.294103870000   -13.427984050000     1.007825032230
         H          -35.430927800000    18.052962460000   -16.184143720000     1.007825032230
         C          -35.457852310000    15.225145450000   -13.243484810000    12.000000000000
         C          -36.789480220000    15.154094770000   -11.048914920000    12.000000000000
         C          -37.880022750000    18.522911950000   -12.973209610000    12.000000000000

  Charge       = 0
  Multiplicity = 1
  Basis Set: AUG-CC-PVDZ
    Blend: AUG-CC-PVDZ
  Basis Set: (AUG-CC-PVDZ AUX)
    Blend: AUG-CC-PVDZ-JKFIT

    Orbital Energies [Eh]
    ---------------------

    Doubly Occupied:

       1A    -15.637071     2A    -15.551216     3A    -11.300916
       4A    -11.263160     5A    -11.245653     6A     -1.352867
       7A     -1.169098     8A     -1.012098     9A     -0.824390
      10A     -0.803731    11A     -0.760666    12A     -0.610096
      13A     -0.603958    14A     -0.601922    15A     -0.570942
      16A     -0.435483    17A     -0.400464    18A     -0.320685

  @DF-RHF Final Energy:  -224.84369627733125

   => Energetics <=

    Nuclear Repulsion Energy =            164.0866959977508657
    One-Electron Energy =                -628.9319563030323934
    Two-Electron Energy =                 240.0015640279502520
    Total Energy =                       -224.8436962773312473

  Dipole Moment: [D]
     X:     2.0431      Y:     0.4150      Z:    -3.3867     Total:     3.9769

    SAPT Results
  --------------------------------------------------------------------------------------------------------
    Electrostatics                  0.02979490 [mEh]       0.01869658 [kcal/mol]       0.07822651 [kJ/mol]
      Elst10,r                      0.02979490 [mEh]       0.01869658 [kcal/mol]       0.07822651 [kJ/mol]

    Exchange                       -0.00000000 [mEh]      -0.00000000 [kcal/mol]      -0.00000000 [kJ/mol]
      Exch10                       -0.00000000 [mEh]      -0.00000000 [kcal/mol]      -0.00000000 [kJ/mol]
      Exch10(S^2)                  -0.00000000 [mEh]      -0.00000000 [kcal/mol]      -0.00000000 [kJ/mol]

    Induction                      -0.00001602 [mEh]      -0.00001006 [kcal/mol]      -0.00004207 [kJ/mol]
      Ind20,r                      -0.00002203 [mEh]      -0.00001383 [kcal/mol]      -0.00005785 [kJ/mol]
      Exch-Ind20,r                  0.00000000 [mEh]       0.00000000 [kcal/mol]       0.00000000 [kJ/mol]
      delta HF,r (2)                0.00000601 [mEh]       0.00000377 [kcal/mol]       0.00001577 [kJ/mol]

    Dispersion                     -0.00020853 [mEh]      -0.00013086 [kcal/mol]      -0.00054751 [kJ/mol]
      Disp20                       -0.00020853 [mEh]      -0.00013086 [kcal/mol]      -0.00054751 [kJ/mol]
      Exch-Disp20                   0.00000000 [mEh]       0.00000000 [kcal/mol]       0.00000000 [kJ/mol]
      Disp20 (SS)                  -0.00010427 [mEh]      -0.00006543 [kcal/mol]      -0.00027375 [kJ/mol]
      Disp20 (OS)                  -0.00010427 [mEh]      -0.00006543 [kcal/mol]      -0.00027375 [kJ/mol]
      Exch-Disp20 (SS)              0.00000000 [mEh]       0.00000000 [kcal/mol]       0.00000000 [kJ/mol]
      Exch-Disp20 (OS)              0.00000000 [mEh]       0.00000000 [kcal/mol]       0.00000000 [kJ/mol]

  Total HF                          0.02977888 [mEh]       0.01868653 [kcal/mol]       0.07818444 [kJ/mol]
  Total SAPT0                       0.02957035 [mEh]       0.01855567 [kcal/mol]       0.07763693 [kJ/mol]

  Special recipe for scaled SAPT0 (see Manual):
    Electrostatics sSAPT0           0.02979490 [mEh]       0.01869658 [kcal/mol]       0.07822651 [kJ/mol]
    Exchange sSAPT0                -0.00000000 [mEh]      -0.00000000 [kcal/mol]      -0.00000000 [kJ/mol]
    Induction sSAPT0               -0.00001602 [mEh]      -0.00001006 [kcal/mol]      -0.00004207 [kJ/mol]
    Dispersion sSAPT0              -0.00020853 [mEh]      -0.00013086 [kcal/mol]      -0.00054751 [kJ/mol]
  Total sSAPT0                      0.02957035 [mEh]       0.01855567 [kcal/mol]       0.07763693 [kJ/mol]
  --------------------------------------------------------------------------------------------------------

*** Psi4 exiting successfully. Buy a developer a beer!
