                               Psi4 1.4rc3

  ==> Input File <==

--------------------------------------------------------------------------
# PSI4 file produced by CrystaLattE

# Generated from:               imidazole.xyz
# Psithon input for N-mer:      2mer-0+85
# Number of atoms per monomer:  [9, 9]
# Number of replicas:           2
# COM priority:                 9.483927887867e-05
# Minimum COM separations:      11.604
# Separation priority:          1.970754545859e-04
# Minimum monomer separations:  9.093
# Cutoff priority:              1.146859058816e-05
# Nuclear repulsion energy:     386.9225113480274

memory 7 GB

molecule Dimer_0_85 {
  N           -4.29309621      -3.06837431       5.30516231
  N           -2.15847371      -2.92627296       1.72037448
  H           -0.02545587      -6.35903575       2.22046452
  H           -2.68566968      -6.53260241       6.61445954
  H           -4.74388423      -0.00609006       2.75615968
  H           -1.41045540      -2.24723147       0.00000000
  C           -1.43737991      -5.07504848       2.94065891
  C           -2.76900782      -5.14609916       5.13522880
  C           -3.85955036      -1.77728198       3.21093411
--
  N           10.48020441       2.00667417      19.58281390
  N            8.34558191       2.14877553      23.16760174
  H            6.21256406      -1.28398727      22.66751170
  H            8.87277788      -1.45755392      18.27351668
  H           10.93099242       5.06895842      22.13181654
  H            7.59756360       2.82781701      24.88797622
  C            7.62448811      -0.00000000      21.94731730
  C            8.95611602      -0.07105068      19.75274741
  C           10.04665856       3.29776650      21.67704210
units = au
no_com
no_reorient
}

set {
  e_convergence 10
  d_convergence 10
  scf_type df
  mp2_type df
  cc_type df
  freeze_core true
}

energy('sapt0/aug-cc-pvdz')

--------------------------------------------------------------------------

  //              Dimer HF             //
    Molecular point group: c1
  Charge       = 0
  Multiplicity = 1
  Basis Set: AUG-CC-PVDZ
    Blend: AUG-CC-PVDZ
  Basis Set: (AUG-CC-PVDZ AUX)
    Blend: AUG-CC-PVDZ-JKFIT
  @DF-RHF Final Energy:  -449.68744788812927
    Total Energy =                       -449.6874478881292134
  //            Monomer A HF           //
    Molecular point group: c1
  Multiplicity = 1
  Basis Set: AUG-CC-PVDZ
    Blend: AUG-CC-PVDZ
  Basis Set: (AUG-CC-PVDZ AUX)
    Blend: AUG-CC-PVDZ-JKFIT
  @DF-RHF Final Energy:  -224.84369739983831
    Total Energy =                       -224.8436973998383053
  //            Monomer B HF           //
    Molecular point group: c1

    Geometry (in Bohr), charge = 0, multiplicity = 1:

       Center              X                  Y                   Z               Mass
    ------------   -----------------  -----------------  -----------------  -----------------
      Gh(N)          -4.293096210000    -3.068374310000     5.305162310000    14.003074004430
      Gh(N)          -2.158473710000    -2.926272960000     1.720374480000    14.003074004430
      Gh(H)          -0.025455870000    -6.359035750000     2.220464520000     1.007825032230
      Gh(H)          -2.685669680000    -6.532602410000     6.614459540000     1.007825032230
      Gh(H)          -4.743884230000    -0.006090060000     2.756159680000     1.007825032230
      Gh(H)          -1.410455400000    -2.247231470000     0.000000000000     1.007825032230
      Gh(C)          -1.437379910000    -5.075048480000     2.940658910000    12.000000000000
      Gh(C)          -2.769007820000    -5.146099160000     5.135228800000    12.000000000000
      Gh(C)          -3.859550360000    -1.777281980000     3.210934110000    12.000000000000
         N           10.480204410000     2.006674170000    19.582813900000    14.003074004430
         N            8.345581910000     2.148775530000    23.167601740000    14.003074004430
         H            6.212564060000    -1.283987270000    22.667511700000     1.007825032230
         H            8.872777880000    -1.457553920000    18.273516680000     1.007825032230
         H           10.930992420000     5.068958420000    22.131816540000     1.007825032230
         H            7.597563600000     2.827817010000    24.887976220000     1.007825032230
         C            7.624488110000     0.000000000000    21.947317300000    12.000000000000
         C            8.956116020000    -0.071050680000    19.752747410000    12.000000000000
         C           10.046658560000     3.297766500000    21.677042100000    12.000000000000

  Charge       = 0
  Multiplicity = 1
  Basis Set: AUG-CC-PVDZ
    Blend: AUG-CC-PVDZ
  Basis Set: (AUG-CC-PVDZ AUX)
    Blend: AUG-CC-PVDZ-JKFIT

    Orbital Energies [Eh]
    ---------------------

    Doubly Occupied:

       1A    -15.637071     2A    -15.551216     3A    -11.300916
       4A    -11.263159     5A    -11.245652     6A     -1.352867
       7A     -1.169098     8A     -1.012098     9A     -0.824389
      10A     -0.803731    11A     -0.760666    12A     -0.610096
      13A     -0.603958    14A     -0.601922    15A     -0.570942
      16A     -0.435483    17A     -0.400464    18A     -0.320685

  @DF-RHF Final Energy:  -224.84369687575119

   => Energetics <=

    Nuclear Repulsion Energy =            164.0866958519447678
    One-Electron Energy =                -628.9319614471526165
    Two-Electron Energy =                 240.0015687194566283
    Total Energy =                       -224.8436968757511920

  Dipole Moment: [D]
     X:    -2.0431      Y:     0.4150      Z:     3.3867     Total:     3.9769

    SAPT Results
  --------------------------------------------------------------------------------------------------------
    Electrostatics                 -0.05241824 [mEh]      -0.03289294 [kcal/mol]      -0.13762406 [kJ/mol]
      Elst10,r                     -0.05241824 [mEh]      -0.03289294 [kcal/mol]      -0.13762406 [kJ/mol]

    Exchange                        0.00000125 [mEh]       0.00000078 [kcal/mol]       0.00000328 [kJ/mol]
      Exch10                        0.00000125 [mEh]       0.00000078 [kcal/mol]       0.00000328 [kJ/mol]
      Exch10(S^2)                   0.00000125 [mEh]       0.00000078 [kcal/mol]       0.00000328 [kJ/mol]

    Induction                      -0.00119555 [mEh]      -0.00075022 [kcal/mol]      -0.00313891 [kJ/mol]
      Ind20,r                      -0.00123415 [mEh]      -0.00077444 [kcal/mol]      -0.00324026 [kJ/mol]
      Exch-Ind20,r                  0.00000237 [mEh]       0.00000149 [kcal/mol]       0.00000622 [kJ/mol]
      delta HF,r (2)                0.00003623 [mEh]       0.00002273 [kcal/mol]       0.00009512 [kJ/mol]

    Dispersion                     -0.01143434 [mEh]      -0.00717516 [kcal/mol]      -0.03002086 [kJ/mol]
      Disp20                       -0.01143449 [mEh]      -0.00717525 [kcal/mol]      -0.03002124 [kJ/mol]
      Exch-Disp20                   0.00000014 [mEh]       0.00000009 [kcal/mol]       0.00000038 [kJ/mol]
      Disp20 (SS)                  -0.00571724 [mEh]      -0.00358762 [kcal/mol]      -0.01501062 [kJ/mol]
      Disp20 (OS)                  -0.00571724 [mEh]      -0.00358762 [kcal/mol]      -0.01501062 [kJ/mol]
      Exch-Disp20 (SS)              0.00000011 [mEh]       0.00000007 [kcal/mol]       0.00000030 [kJ/mol]
      Exch-Disp20 (OS)              0.00000003 [mEh]       0.00000002 [kcal/mol]       0.00000008 [kJ/mol]

  Total HF                         -0.05361254 [mEh]      -0.03364238 [kcal/mol]      -0.14075970 [kJ/mol]
  Total SAPT0                      -0.06504688 [mEh]      -0.04081753 [kcal/mol]      -0.17078056 [kJ/mol]

  Special recipe for scaled SAPT0 (see Manual):
    Electrostatics sSAPT0          -0.05241824 [mEh]      -0.03289294 [kcal/mol]      -0.13762406 [kJ/mol]
    Exchange sSAPT0                 0.00000125 [mEh]       0.00000078 [kcal/mol]       0.00000328 [kJ/mol]
    Induction sSAPT0               -0.00119555 [mEh]      -0.00075022 [kcal/mol]      -0.00313891 [kJ/mol]
    Dispersion sSAPT0              -0.01143434 [mEh]      -0.00717516 [kcal/mol]      -0.03002086 [kJ/mol]
  Total sSAPT0                     -0.06504688 [mEh]      -0.04081753 [kcal/mol]      -0.17078056 [kJ/mol]
  --------------------------------------------------------------------------------------------------------

*** Psi4 exiting successfully. Buy a developer a beer!
