                               Psi4 1.4rc3

  ==> Input File <==

--------------------------------------------------------------------------
# PSI4 file produced by CrystaLattE

# Generated from:               imidazole.xyz
# Psithon input for N-mer:      2mer-0+535
# Number of atoms per monomer:  [9, 9]
# Number of replicas:           2
# COM priority:                 1.310537498630e-05
# Minimum COM separations:      22.445
# Separation priority:          2.021399065229e-05
# Minimum monomer separations:  19.426
# Cutoff priority:              5.506421015348e-07
# Nuclear repulsion energy:     358.69960175007515

memory 7 GB

molecule Dimer_0_535 {
  N           -4.29309621      -3.06837431       5.30516231
  N           -2.15847371      -2.92627296       1.72037448
  H           -0.02545587      -6.35903575       2.22046452
  H           -2.68566968      -6.53260241       6.61445954
  H           -4.74388423      -0.00609006       2.75615968
  H           -1.41045540      -2.24723147       0.00000000
  C           -1.43737991      -5.07504848       2.94065891
  C           -2.76900782      -5.14609916       5.13522880
  C           -3.85955036      -1.77728198       3.21093411
--
  N            1.51583252      22.30686810      35.76695762
  N           -0.61878998      22.44896946      39.35174546
  H           -2.75180782      19.01620666      38.85165542
  H           -0.09159401      18.84264001      34.45766040
  H            1.96662053      25.36915235      38.31596026
  H           -1.36680829      23.12801094      41.07211994
  C           -1.33988378      20.30019393      38.13146102
  C           -0.00825587      20.22914325      35.93689113
  C            1.08228667      23.59796043      37.86118582
units = au
no_com
no_reorient
}

set {
  e_convergence 10
  d_convergence 10
  scf_type df
  mp2_type df
  cc_type df
  freeze_core true
}

energy('sapt0/aug-cc-pvdz')

--------------------------------------------------------------------------

  //              Dimer HF             //
    Molecular point group: c1
  Charge       = 0
  Multiplicity = 1
  Basis Set: AUG-CC-PVDZ
    Blend: AUG-CC-PVDZ
  Basis Set: (AUG-CC-PVDZ AUX)
    Blend: AUG-CC-PVDZ-JKFIT
  @DF-RHF Final Energy:  -449.68738781532494
    Total Energy =                       -449.6873878153249393
  //            Monomer A HF           //
    Molecular point group: c1
  Multiplicity = 1
  Basis Set: AUG-CC-PVDZ
    Blend: AUG-CC-PVDZ
  Basis Set: (AUG-CC-PVDZ AUX)
    Blend: AUG-CC-PVDZ-JKFIT
  @DF-RHF Final Energy:  -224.84369627812674
    Total Energy =                       -224.8436962781267425
  //            Monomer B HF           //
    Molecular point group: c1

    Geometry (in Bohr), charge = 0, multiplicity = 1:

       Center              X                  Y                   Z               Mass
    ------------   -----------------  -----------------  -----------------  -----------------
      Gh(N)          -4.293096210000    -3.068374310000     5.305162310000    14.003074004430
      Gh(N)          -2.158473710000    -2.926272960000     1.720374480000    14.003074004430
      Gh(H)          -0.025455870000    -6.359035750000     2.220464520000     1.007825032230
      Gh(H)          -2.685669680000    -6.532602410000     6.614459540000     1.007825032230
      Gh(H)          -4.743884230000    -0.006090060000     2.756159680000     1.007825032230
      Gh(H)          -1.410455400000    -2.247231470000     0.000000000000     1.007825032230
      Gh(C)          -1.437379910000    -5.075048480000     2.940658910000    12.000000000000
      Gh(C)          -2.769007820000    -5.146099160000     5.135228800000    12.000000000000
      Gh(C)          -3.859550360000    -1.777281980000     3.210934110000    12.000000000000
         N            1.515832520000    22.306868100000    35.766957620000    14.003074004430
         N           -0.618789980000    22.448969460000    39.351745460000    14.003074004430
         H           -2.751807820000    19.016206660000    38.851655420000     1.007825032230
         H           -0.091594010000    18.842640010000    34.457660400000     1.007825032230
         H            1.966620530000    25.369152350000    38.315960260000     1.007825032230
         H           -1.366808290000    23.128010940000    41.072119940000     1.007825032230
         C           -1.339883780000    20.300193930000    38.131461020000    12.000000000000
         C           -0.008255870000    20.229143250000    35.936891130000    12.000000000000
         C            1.082286670000    23.597960430000    37.861185820000    12.000000000000

  Charge       = 0
  Multiplicity = 1
  Basis Set: AUG-CC-PVDZ
    Blend: AUG-CC-PVDZ
  Basis Set: (AUG-CC-PVDZ AUX)
    Blend: AUG-CC-PVDZ-JKFIT

    Orbital Energies [Eh]
    ---------------------

    Doubly Occupied:

       1A    -15.637071     2A    -15.551216     3A    -11.300916
       4A    -11.263160     5A    -11.245653     6A     -1.352867
       7A     -1.169098     8A     -1.012098     9A     -0.824390
      10A     -0.803731    11A     -0.760666    12A     -0.610096
      13A     -0.603958    14A     -0.601922    15A     -0.570942
      16A     -0.435483    17A     -0.400464    18A     -0.320685

  @DF-RHF Final Energy:  -224.84369627789243

   => Energetics <=

    Nuclear Repulsion Energy =            164.0866958690804438
    One-Electron Energy =                -628.9319560484177600
    Two-Electron Energy =                 240.0015639014448539
    Total Energy =                       -224.8436962778924340

  Dipole Moment: [D]
     X:    -2.0431      Y:     0.4150      Z:     3.3867     Total:     3.9769

    SAPT Results
  --------------------------------------------------------------------------------------------------------
    Electrostatics                  0.00476998 [mEh]       0.00299321 [kcal/mol]       0.01252359 [kJ/mol]
      Elst10,r                      0.00476998 [mEh]       0.00299321 [kcal/mol]       0.01252359 [kJ/mol]

    Exchange                        0.00000000 [mEh]       0.00000000 [kcal/mol]       0.00000000 [kJ/mol]
      Exch10                        0.00000000 [mEh]       0.00000000 [kcal/mol]       0.00000000 [kJ/mol]
      Exch10(S^2)                   0.00000000 [mEh]       0.00000000 [kcal/mol]       0.00000000 [kJ/mol]

    Induction                      -0.00002929 [mEh]      -0.00001838 [kcal/mol]      -0.00007690 [kJ/mol]
      Ind20,r                      -0.00004107 [mEh]      -0.00002577 [kcal/mol]      -0.00010784 [kJ/mol]
      Exch-Ind20,r                  0.00000000 [mEh]       0.00000000 [kcal/mol]       0.00000000 [kJ/mol]
      delta HF,r (2)                0.00001178 [mEh]       0.00000739 [kcal/mol]       0.00003094 [kJ/mol]

    Dispersion                     -0.00022265 [mEh]      -0.00013972 [kcal/mol]      -0.00058458 [kJ/mol]
      Disp20                       -0.00022265 [mEh]      -0.00013972 [kcal/mol]      -0.00058458 [kJ/mol]
      Exch-Disp20                   0.00000000 [mEh]       0.00000000 [kcal/mol]       0.00000000 [kJ/mol]
      Disp20 (SS)                  -0.00011133 [mEh]      -0.00006986 [kcal/mol]      -0.00029229 [kJ/mol]
      Disp20 (OS)                  -0.00011133 [mEh]      -0.00006986 [kcal/mol]      -0.00029229 [kJ/mol]
      Exch-Disp20 (SS)              0.00000000 [mEh]       0.00000000 [kcal/mol]       0.00000000 [kJ/mol]
      Exch-Disp20 (OS)              0.00000000 [mEh]       0.00000000 [kcal/mol]       0.00000000 [kJ/mol]

  Total HF                          0.00474069 [mEh]       0.00297483 [kcal/mol]       0.01244669 [kJ/mol]
  Total SAPT0                       0.00451804 [mEh]       0.00283511 [kcal/mol]       0.01186211 [kJ/mol]

  Special recipe for scaled SAPT0 (see Manual):
    Electrostatics sSAPT0           0.00476998 [mEh]       0.00299321 [kcal/mol]       0.01252359 [kJ/mol]
    Exchange sSAPT0                 0.00000000 [mEh]       0.00000000 [kcal/mol]       0.00000000 [kJ/mol]
    Induction sSAPT0               -0.00002929 [mEh]      -0.00001838 [kcal/mol]      -0.00007690 [kJ/mol]
    Dispersion sSAPT0              -0.00022265 [mEh]      -0.00013972 [kcal/mol]      -0.00058458 [kJ/mol]
  Total sSAPT0                      0.00451804 [mEh]       0.00283511 [kcal/mol]       0.01186211 [kJ/mol]
  --------------------------------------------------------------------------------------------------------

*** Psi4 exiting successfully. Buy a developer a beer!
