                               Psi4 1.4rc3

  ==> Input File <==

--------------------------------------------------------------------------
# PSI4 file produced by CrystaLattE

# Generated from:               imidazole.xyz
# Psithon input for N-mer:      2mer-0+62
# Number of atoms per monomer:  [9, 9]
# Number of replicas:           2
# COM priority:                 1.189238507465e-04
# Minimum COM separations:      10.761
# Separation priority:          2.199059035799e-04
# Minimum monomer separations:  8.767
# Cutoff priority:              1.327341026386e-05
# Nuclear repulsion energy:     391.48124589445075

memory 7 GB

molecule Dimer_0_62 {
  N           -4.29309621      -3.06837431       5.30516231
  N           -2.15847371      -2.92627296       1.72037448
  H           -0.02545587      -6.35903575       2.22046452
  H           -2.68566968      -6.53260241       6.61445954
  H           -4.74388423      -0.00609006       2.75615968
  H           -1.41045540      -2.24723147       0.00000000
  C           -1.43737991      -5.07504848       2.94065891
  C           -2.76900782      -5.14609916       5.13522880
  C           -3.85955036      -1.77728198       3.21093411
--
  N          -14.57589610       2.00667417     -12.78547354
  N          -16.71051860       2.14877553      -9.20068571
  H          -18.84353644      -1.28398727      -9.70077575
  H          -16.18332263      -1.45755392     -14.09477077
  H          -14.12510809       5.06895842     -10.23647090
  H          -17.45853691       2.82781701      -7.48031123
  C          -17.43161240      -0.00000000     -10.42097014
  C          -16.09998449      -0.07105068     -12.61554003
  C          -15.00944195       3.29776650     -10.69124534
units = au
no_com
no_reorient
}

set {
  e_convergence 10
  d_convergence 10
  scf_type df
  mp2_type df
  cc_type df
  freeze_core true
}

energy('sapt0/aug-cc-pvdz')

--------------------------------------------------------------------------

  //              Dimer HF             //
    Molecular point group: c1
  Charge       = 0
  Multiplicity = 1
  Basis Set: AUG-CC-PVDZ
    Blend: AUG-CC-PVDZ
  Basis Set: (AUG-CC-PVDZ AUX)
    Blend: AUG-CC-PVDZ-JKFIT
  @DF-RHF Final Energy:  -449.68763842050242
    Total Energy =                       -449.6876384205023669
  //            Monomer A HF           //
    Molecular point group: c1
  Multiplicity = 1
  Basis Set: AUG-CC-PVDZ
    Blend: AUG-CC-PVDZ
  Basis Set: (AUG-CC-PVDZ AUX)
    Blend: AUG-CC-PVDZ-JKFIT
  @DF-RHF Final Energy:  -224.84369719242744
    Total Energy =                       -224.8436971924274417
  //            Monomer B HF           //
    Molecular point group: c1

    Geometry (in Bohr), charge = 0, multiplicity = 1:

       Center              X                  Y                   Z               Mass
    ------------   -----------------  -----------------  -----------------  -----------------
      Gh(N)          -4.293096210000    -3.068374310000     5.305162310000    14.003074004430
      Gh(N)          -2.158473710000    -2.926272960000     1.720374480000    14.003074004430
      Gh(H)          -0.025455870000    -6.359035750000     2.220464520000     1.007825032230
      Gh(H)          -2.685669680000    -6.532602410000     6.614459540000     1.007825032230
      Gh(H)          -4.743884230000    -0.006090060000     2.756159680000     1.007825032230
      Gh(H)          -1.410455400000    -2.247231470000     0.000000000000     1.007825032230
      Gh(C)          -1.437379910000    -5.075048480000     2.940658910000    12.000000000000
      Gh(C)          -2.769007820000    -5.146099160000     5.135228800000    12.000000000000
      Gh(C)          -3.859550360000    -1.777281980000     3.210934110000    12.000000000000
         N          -14.575896100000     2.006674170000   -12.785473540000    14.003074004430
         N          -16.710518600000     2.148775530000    -9.200685710000    14.003074004430
         H          -18.843536440000    -1.283987270000    -9.700775750000     1.007825032230
         H          -16.183322630000    -1.457553920000   -14.094770770000     1.007825032230
         H          -14.125108090000     5.068958420000   -10.236470900000     1.007825032230
         H          -17.458536910000     2.827817010000    -7.480311230000     1.007825032230
         C          -17.431612400000     0.000000000000   -10.420970140000    12.000000000000
         C          -16.099984490000    -0.071050680000   -12.615540030000    12.000000000000
         C          -15.009441950000     3.297766500000   -10.691245340000    12.000000000000

  Charge       = 0
  Multiplicity = 1
  Basis Set: AUG-CC-PVDZ
    Blend: AUG-CC-PVDZ
  Basis Set: (AUG-CC-PVDZ AUX)
    Blend: AUG-CC-PVDZ-JKFIT

    Orbital Energies [Eh]
    ---------------------

    Doubly Occupied:

       1A    -15.637071     2A    -15.551216     3A    -11.300916
       4A    -11.263160     5A    -11.245653     6A     -1.352867
       7A     -1.169098     8A     -1.012098     9A     -0.824389
      10A     -0.803731    11A     -0.760666    12A     -0.610096
      13A     -0.603958    14A     -0.601922    15A     -0.570942
      16A     -0.435483    17A     -0.400464    18A     -0.320685

  @DF-RHF Final Energy:  -224.84369724146728

   => Energetics <=

    Nuclear Repulsion Energy =            164.0866959844954636
    One-Electron Energy =                -628.9319611452735899
    Two-Electron Energy =                 240.0015679193108440
    Total Energy =                       -224.8436972414672823

  Dipole Moment: [D]
     X:    -2.0431      Y:     0.4150      Z:     3.3867     Total:     3.9769

    SAPT Results
  --------------------------------------------------------------------------------------------------------
    Electrostatics                 -0.24152514 [mEh]      -0.15155932 [kcal/mol]      -0.63412418 [kJ/mol]
      Elst10,r                     -0.24152514 [mEh]      -0.15155932 [kcal/mol]      -0.63412418 [kJ/mol]

    Exchange                        0.00000015 [mEh]       0.00000010 [kcal/mol]       0.00000040 [kJ/mol]
      Exch10                        0.00000015 [mEh]       0.00000010 [kcal/mol]       0.00000040 [kJ/mol]
      Exch10(S^2)                   0.00000015 [mEh]       0.00000010 [kcal/mol]       0.00000040 [kJ/mol]

    Induction                      -0.00246162 [mEh]      -0.00154469 [kcal/mol]      -0.00646298 [kJ/mol]
      Ind20,r                      -0.00245108 [mEh]      -0.00153808 [kcal/mol]      -0.00643532 [kJ/mol]
      Exch-Ind20,r                  0.00000100 [mEh]       0.00000063 [kcal/mol]       0.00000263 [kJ/mol]
      delta HF,r (2)               -0.00001154 [mEh]      -0.00000724 [kcal/mol]      -0.00003029 [kJ/mol]

    Dispersion                     -0.01638017 [mEh]      -0.01027871 [kcal/mol]      -0.04300612 [kJ/mol]
      Disp20                       -0.01638030 [mEh]      -0.01027880 [kcal/mol]      -0.04300648 [kJ/mol]
      Exch-Disp20                   0.00000014 [mEh]       0.00000009 [kcal/mol]       0.00000036 [kJ/mol]
      Disp20 (SS)                  -0.00819015 [mEh]      -0.00513940 [kcal/mol]      -0.02150324 [kJ/mol]
      Disp20 (OS)                  -0.00819015 [mEh]      -0.00513940 [kcal/mol]      -0.02150324 [kJ/mol]
      Exch-Disp20 (SS)              0.00000012 [mEh]       0.00000007 [kcal/mol]       0.00000030 [kJ/mol]
      Exch-Disp20 (OS)              0.00000002 [mEh]       0.00000001 [kcal/mol]       0.00000006 [kJ/mol]

  Total HF                         -0.24398661 [mEh]      -0.15310391 [kcal/mol]      -0.64058675 [kJ/mol]
  Total SAPT0                      -0.26036677 [mEh]      -0.16338262 [kcal/mol]      -0.68359287 [kJ/mol]

  Special recipe for scaled SAPT0 (see Manual):
    Electrostatics sSAPT0          -0.24152514 [mEh]      -0.15155932 [kcal/mol]      -0.63412418 [kJ/mol]
    Exchange sSAPT0                 0.00000015 [mEh]       0.00000010 [kcal/mol]       0.00000040 [kJ/mol]
    Induction sSAPT0               -0.00246162 [mEh]      -0.00154469 [kcal/mol]      -0.00646298 [kJ/mol]
    Dispersion sSAPT0              -0.01638017 [mEh]      -0.01027871 [kcal/mol]      -0.04300612 [kJ/mol]
  Total sSAPT0                     -0.26036677 [mEh]      -0.16338262 [kcal/mol]      -0.68359287 [kJ/mol]
  --------------------------------------------------------------------------------------------------------

*** Psi4 exiting successfully. Buy a developer a beer!
