                               Psi4 1.4rc3

  ==> Input File <==

--------------------------------------------------------------------------
# PSI4 file produced by CrystaLattE

# Generated from:               imidazole.xyz
# Psithon input for N-mer:      2mer-0+224
# Number of atoms per monomer:  [9, 9]
# Number of replicas:           2
# COM priority:                 2.490687647849e-05
# Minimum COM separations:      18.120
# Separation priority:          3.899440265780e-05
# Minimum monomer separations:  15.605
# Cutoff priority:              1.322319378551e-06
# Nuclear repulsion energy:     366.0049651778495

memory 7 GB

molecule Dimer_0_224 {
  N           -4.29309621      -3.06837431       5.30516231
  N           -2.15847371      -2.92627296       1.72037448
  H           -0.02545587      -6.35903575       2.22046452
  H           -2.68566968      -6.53260241       6.61445954
  H           -4.74388423      -0.00609006       2.75615968
  H           -1.41045540      -2.24723147       0.00000000
  C           -1.43737991      -5.07504848       2.94065891
  C           -2.76900782      -5.14609916       5.13522880
  C           -3.85955036      -1.77728198       3.21093411
--
  N           28.84565259      -1.10331554      -2.78690955
  N           30.98027509      -1.24541690      -6.37169738
  H           33.11329293       2.18734590      -5.87160734
  H           30.45307912       2.36091255      -1.47761232
  H           28.39486458      -4.16559979      -5.33591219
  H           31.72829340      -1.92445838      -8.09207186
  C           31.70136889       0.90335863      -5.15141295
  C           30.36974098       0.97440931      -2.95684306
  C           29.27919844      -2.39440787      -4.88113775
units = au
no_com
no_reorient
}

set {
  e_convergence 10
  d_convergence 10
  scf_type df
  mp2_type df
  cc_type df
  freeze_core true
}

energy('sapt0/aug-cc-pvdz')

--------------------------------------------------------------------------

  //              Dimer HF             //
    Molecular point group: c1
  Charge       = 0
  Multiplicity = 1
  Basis Set: AUG-CC-PVDZ
    Blend: AUG-CC-PVDZ
  Basis Set: (AUG-CC-PVDZ AUX)
    Blend: AUG-CC-PVDZ-JKFIT
  @DF-RHF Final Energy:  -449.68741728174035
    Total Energy =                       -449.6874172817402950
  //            Monomer A HF           //
    Molecular point group: c1
  Multiplicity = 1
  Basis Set: AUG-CC-PVDZ
    Blend: AUG-CC-PVDZ
  Basis Set: (AUG-CC-PVDZ AUX)
    Blend: AUG-CC-PVDZ-JKFIT
  @DF-RHF Final Energy:  -224.84369627804904
    Total Energy =                       -224.8436962780490376
  //            Monomer B HF           //
    Molecular point group: c1

    Geometry (in Bohr), charge = 0, multiplicity = 1:

       Center              X                  Y                   Z               Mass
    ------------   -----------------  -----------------  -----------------  -----------------
      Gh(N)          -4.293096210000    -3.068374310000     5.305162310000    14.003074004430
      Gh(N)          -2.158473710000    -2.926272960000     1.720374480000    14.003074004430
      Gh(H)          -0.025455870000    -6.359035750000     2.220464520000     1.007825032230
      Gh(H)          -2.685669680000    -6.532602410000     6.614459540000     1.007825032230
      Gh(H)          -4.743884230000    -0.006090060000     2.756159680000     1.007825032230
      Gh(H)          -1.410455400000    -2.247231470000     0.000000000000     1.007825032230
      Gh(C)          -1.437379910000    -5.075048480000     2.940658910000    12.000000000000
      Gh(C)          -2.769007820000    -5.146099160000     5.135228800000    12.000000000000
      Gh(C)          -3.859550360000    -1.777281980000     3.210934110000    12.000000000000
         N           28.845652590000    -1.103315540000    -2.786909550000    14.003074004430
         N           30.980275090000    -1.245416900000    -6.371697380000    14.003074004430
         H           33.113292930000     2.187345900000    -5.871607340000     1.007825032230
         H           30.453079120000     2.360912550000    -1.477612320000     1.007825032230
         H           28.394864580000    -4.165599790000    -5.335912190000     1.007825032230
         H           31.728293400000    -1.924458380000    -8.092071860000     1.007825032230
         C           31.701368890000     0.903358630000    -5.151412950000    12.000000000000
         C           30.369740980000     0.974409310000    -2.956843060000    12.000000000000
         C           29.279198440000    -2.394407870000    -4.881137750000    12.000000000000

  Charge       = 0
  Multiplicity = 1
  Basis Set: AUG-CC-PVDZ
    Blend: AUG-CC-PVDZ
  Basis Set: (AUG-CC-PVDZ AUX)
    Blend: AUG-CC-PVDZ-JKFIT

    Orbital Energies [Eh]
    ---------------------

    Doubly Occupied:

       1A    -15.637071     2A    -15.551216     3A    -11.300916
       4A    -11.263160     5A    -11.245653     6A     -1.352867
       7A     -1.169098     8A     -1.012098     9A     -0.824390
      10A     -0.803731    11A     -0.760666    12A     -0.610096
      13A     -0.603958    14A     -0.601922    15A     -0.570942
      16A     -0.435483    17A     -0.400464    18A     -0.320685

  @DF-RHF Final Energy:  -224.84369627895001

   => Energetics <=

    Nuclear Repulsion Energy =            164.0866959844954351
    One-Electron Energy =                -628.9319562788517715
    Two-Electron Energy =                 240.0015640154063021
    Total Energy =                       -224.8436962789500058

  Dipole Moment: [D]
     X:     2.0431      Y:    -0.4150      Z:    -3.3867     Total:     3.9769

    SAPT Results
  --------------------------------------------------------------------------------------------------------
    Electrostatics                 -0.02458006 [mEh]      -0.01542422 [kcal/mol]      -0.06453495 [kJ/mol]
      Elst10,r                     -0.02458006 [mEh]      -0.01542422 [kcal/mol]      -0.06453495 [kJ/mol]

    Exchange                        0.00000000 [mEh]       0.00000000 [kcal/mol]       0.00000000 [kJ/mol]
      Exch10                        0.00000000 [mEh]       0.00000000 [kcal/mol]       0.00000000 [kJ/mol]
      Exch10(S^2)                   0.00000000 [mEh]       0.00000000 [kcal/mol]       0.00000000 [kJ/mol]

    Induction                      -0.00014468 [mEh]      -0.00009079 [kcal/mol]      -0.00037985 [kJ/mol]
      Ind20,r                      -0.00015281 [mEh]      -0.00009589 [kcal/mol]      -0.00040122 [kJ/mol]
      Exch-Ind20,r                  0.00000000 [mEh]       0.00000000 [kcal/mol]       0.00000000 [kJ/mol]
      delta HF,r (2)                0.00000814 [mEh]       0.00000511 [kcal/mol]       0.00002137 [kJ/mol]

    Dispersion                     -0.00077577 [mEh]      -0.00048680 [kcal/mol]      -0.00203678 [kJ/mol]
      Disp20                       -0.00077577 [mEh]      -0.00048680 [kcal/mol]      -0.00203678 [kJ/mol]
      Exch-Disp20                   0.00000000 [mEh]       0.00000000 [kcal/mol]       0.00000000 [kJ/mol]
      Disp20 (SS)                  -0.00038788 [mEh]      -0.00024340 [kcal/mol]      -0.00101839 [kJ/mol]
      Disp20 (OS)                  -0.00038788 [mEh]      -0.00024340 [kcal/mol]      -0.00101839 [kJ/mol]
      Exch-Disp20 (SS)              0.00000000 [mEh]       0.00000000 [kcal/mol]       0.00000000 [kJ/mol]
      Exch-Disp20 (OS)              0.00000000 [mEh]       0.00000000 [kcal/mol]       0.00000000 [kJ/mol]

  Total HF                         -0.02472474 [mEh]      -0.01551501 [kcal/mol]      -0.06491480 [kJ/mol]
  Total SAPT0                      -0.02550051 [mEh]      -0.01600181 [kcal/mol]      -0.06695158 [kJ/mol]

  Special recipe for scaled SAPT0 (see Manual):
    Electrostatics sSAPT0          -0.02458006 [mEh]      -0.01542422 [kcal/mol]      -0.06453495 [kJ/mol]
    Exchange sSAPT0                 0.00000000 [mEh]       0.00000000 [kcal/mol]       0.00000000 [kJ/mol]
    Induction sSAPT0               -0.00014468 [mEh]      -0.00009079 [kcal/mol]      -0.00037985 [kJ/mol]
    Dispersion sSAPT0              -0.00077577 [mEh]      -0.00048680 [kcal/mol]      -0.00203678 [kJ/mol]
  Total sSAPT0                     -0.02550051 [mEh]      -0.01600181 [kcal/mol]      -0.06695158 [kJ/mol]
  --------------------------------------------------------------------------------------------------------

*** Psi4 exiting successfully. Buy a developer a beer!
