                               Psi4 1.4rc3

  ==> Input File <==

--------------------------------------------------------------------------
# PSI4 file produced by CrystaLattE

# Generated from:               imidazole.xyz
# Psithon input for N-mer:      2mer-0+118
# Number of atoms per monomer:  [9, 9]
# Number of replicas:           2
# COM priority:                 5.914588708136e-05
# Minimum COM separations:      13.582
# Separation priority:          1.020962651732e-04
# Minimum monomer separations:  11.322
# Cutoff priority:              4.771773346500e-06
# Nuclear repulsion energy:     378.40559628294955

memory 7 GB

molecule Dimer_0_118 {
  N           -4.29309621      -3.06837431       5.30516231
  N           -2.15847371      -2.92627296       1.72037448
  H           -0.02545587      -6.35903575       2.22046452
  H           -2.68566968      -6.53260241       6.61445954
  H           -4.74388423      -0.00609006       2.75615968
  H           -1.41045540      -2.24723147       0.00000000
  C           -1.43737991      -5.07504848       2.94065891
  C           -2.76900782      -5.14609916       5.13522880
  C           -3.85955036      -1.77728198       3.21093411
--
  N           19.88128070      -1.10331554      13.39723417
  N           22.01590320      -1.24541690       9.81244634
  H           24.14892105       2.18734590      10.31253638
  H           21.48870723       2.36091255      14.70653140
  H           19.43049269      -4.16559979      10.84823154
  H           22.76392151      -1.92445838       8.09207186
  C           22.73699700       0.90335863      11.03273078
  C           21.40536909       0.97440931      13.22730066
  C           20.31482655      -2.39440787      11.30300598
units = au
no_com
no_reorient
}

set {
  e_convergence 10
  d_convergence 10
  scf_type df
  mp2_type df
  cc_type df
  freeze_core true
}

energy('sapt0/aug-cc-pvdz')

--------------------------------------------------------------------------

  //              Dimer HF             //
    Molecular point group: c1
  Charge       = 0
  Multiplicity = 1
  Basis Set: AUG-CC-PVDZ
    Blend: AUG-CC-PVDZ
  Basis Set: (AUG-CC-PVDZ AUX)
    Blend: AUG-CC-PVDZ-JKFIT
  @DF-RHF Final Energy:  -449.68726016551153
    Total Energy =                       -449.6872601655114750
  //            Monomer A HF           //
    Molecular point group: c1
  Multiplicity = 1
  Basis Set: AUG-CC-PVDZ
    Blend: AUG-CC-PVDZ
  Basis Set: (AUG-CC-PVDZ AUX)
    Blend: AUG-CC-PVDZ-JKFIT
  @DF-RHF Final Energy:  -224.84369630888611
    Total Energy =                       -224.8436963088861091
  //            Monomer B HF           //
    Molecular point group: c1

    Geometry (in Bohr), charge = 0, multiplicity = 1:

       Center              X                  Y                   Z               Mass
    ------------   -----------------  -----------------  -----------------  -----------------
      Gh(N)          -4.293096210000    -3.068374310000     5.305162310000    14.003074004430
      Gh(N)          -2.158473710000    -2.926272960000     1.720374480000    14.003074004430
      Gh(H)          -0.025455870000    -6.359035750000     2.220464520000     1.007825032230
      Gh(H)          -2.685669680000    -6.532602410000     6.614459540000     1.007825032230
      Gh(H)          -4.743884230000    -0.006090060000     2.756159680000     1.007825032230
      Gh(H)          -1.410455400000    -2.247231470000     0.000000000000     1.007825032230
      Gh(C)          -1.437379910000    -5.075048480000     2.940658910000    12.000000000000
      Gh(C)          -2.769007820000    -5.146099160000     5.135228800000    12.000000000000
      Gh(C)          -3.859550360000    -1.777281980000     3.210934110000    12.000000000000
         N           19.881280700000    -1.103315540000    13.397234170000    14.003074004430
         N           22.015903200000    -1.245416900000     9.812446340000    14.003074004430
         H           24.148921050000     2.187345900000    10.312536380000     1.007825032230
         H           21.488707230000     2.360912550000    14.706531400000     1.007825032230
         H           19.430492690000    -4.165599790000    10.848231540000     1.007825032230
         H           22.763921510000    -1.924458380000     8.092071860000     1.007825032230
         C           22.736997000000     0.903358630000    11.032730780000    12.000000000000
         C           21.405369090000     0.974409310000    13.227300660000    12.000000000000
         C           20.314826550000    -2.394407870000    11.303005980000    12.000000000000

  Charge       = 0
  Multiplicity = 1
  Basis Set: AUG-CC-PVDZ
    Blend: AUG-CC-PVDZ
  Basis Set: (AUG-CC-PVDZ AUX)
    Blend: AUG-CC-PVDZ-JKFIT

    Orbital Energies [Eh]
    ---------------------

    Doubly Occupied:

       1A    -15.637071     2A    -15.551216     3A    -11.300916
       4A    -11.263160     5A    -11.245653     6A     -1.352867
       7A     -1.169098     8A     -1.012098     9A     -0.824390
      10A     -0.803731    11A     -0.760666    12A     -0.610096
      13A     -0.603958    14A     -0.601922    15A     -0.570942
      16A     -0.435483    17A     -0.400464    18A     -0.320685

  @DF-RHF Final Energy:  -224.84369630104430

   => Energetics <=

    Nuclear Repulsion Energy =            164.0866960212685797
    One-Electron Energy =                -628.9319565766298865
    Two-Electron Energy =                 240.0015642543169747
    Total Energy =                       -224.8436963010443037

  Dipole Moment: [D]
     X:     2.0431      Y:    -0.4150      Z:    -3.3867     Total:     3.9769

    SAPT Results
  --------------------------------------------------------------------------------------------------------
    Electrostatics                  0.13290911 [mEh]       0.08340173 [kcal/mol]       0.34895283 [kJ/mol]
      Elst10,r                      0.13290911 [mEh]       0.08340173 [kcal/mol]       0.34895283 [kJ/mol]

    Exchange                        0.00000001 [mEh]       0.00000000 [kcal/mol]       0.00000001 [kJ/mol]
      Exch10                        0.00000001 [mEh]       0.00000000 [kcal/mol]       0.00000001 [kJ/mol]
      Exch10(S^2)                   0.00000001 [mEh]       0.00000000 [kcal/mol]       0.00000001 [kJ/mol]

    Induction                      -0.00046470 [mEh]      -0.00029160 [kcal/mol]      -0.00122007 [kJ/mol]
      Ind20,r                      -0.00047435 [mEh]      -0.00029766 [kcal/mol]      -0.00124541 [kJ/mol]
      Exch-Ind20,r                  0.00000003 [mEh]       0.00000002 [kcal/mol]       0.00000007 [kJ/mol]
      delta HF,r (2)                0.00000962 [mEh]       0.00000604 [kcal/mol]       0.00002526 [kJ/mol]

    Dispersion                     -0.00401695 [mEh]      -0.00252068 [kcal/mol]      -0.01054651 [kJ/mol]
      Disp20                       -0.00401696 [mEh]      -0.00252068 [kcal/mol]      -0.01054652 [kJ/mol]
      Exch-Disp20                   0.00000000 [mEh]       0.00000000 [kcal/mol]       0.00000001 [kJ/mol]
      Disp20 (SS)                  -0.00200848 [mEh]      -0.00126034 [kcal/mol]      -0.00527326 [kJ/mol]
      Disp20 (OS)                  -0.00200848 [mEh]      -0.00126034 [kcal/mol]      -0.00527326 [kJ/mol]
      Exch-Disp20 (SS)              0.00000000 [mEh]       0.00000000 [kcal/mol]       0.00000001 [kJ/mol]
      Exch-Disp20 (OS)              0.00000000 [mEh]       0.00000000 [kcal/mol]       0.00000000 [kJ/mol]

  Total HF                          0.13244442 [mEh]       0.08311013 [kcal/mol]       0.34773277 [kJ/mol]
  Total SAPT0                       0.12842747 [mEh]       0.08058945 [kcal/mol]       0.33718627 [kJ/mol]

  Special recipe for scaled SAPT0 (see Manual):
    Electrostatics sSAPT0           0.13290911 [mEh]       0.08340173 [kcal/mol]       0.34895283 [kJ/mol]
    Exchange sSAPT0                 0.00000001 [mEh]       0.00000000 [kcal/mol]       0.00000001 [kJ/mol]
    Induction sSAPT0               -0.00046470 [mEh]      -0.00029160 [kcal/mol]      -0.00122007 [kJ/mol]
    Dispersion sSAPT0              -0.00401695 [mEh]      -0.00252068 [kcal/mol]      -0.01054651 [kJ/mol]
  Total sSAPT0                      0.12842747 [mEh]       0.08058945 [kcal/mol]       0.33718627 [kJ/mol]
  --------------------------------------------------------------------------------------------------------

*** Psi4 exiting successfully. Buy a developer a beer!
