                               Psi4 1.4rc3

  ==> Input File <==

--------------------------------------------------------------------------
# PSI4 file produced by CrystaLattE

# Generated from:               imidazole.xyz
# Psithon input for N-mer:      2mer-0+359
# Number of atoms per monomer:  [9, 9]
# Number of replicas:           1
# COM priority:                 2.870547978155e-05
# Minimum COM separations:      17.283
# Separation priority:          3.678758165986e-05
# Minimum monomer separations:  15.911
# Cutoff priority:              1.223493459860e-06
# Nuclear repulsion energy:     367.6614993802

memory 7 GB

molecule Dimer_0_359 {
  N           -4.29309621      -3.06837431       5.30516231
  N           -2.15847371      -2.92627296       1.72037448
  H           -0.02545587      -6.35903575       2.22046452
  H           -2.68566968      -6.53260241       6.61445954
  H           -4.74388423      -0.00609006       2.75615968
  H           -1.41045540      -2.24723147       0.00000000
  C           -1.43737991      -5.07504848       2.94065891
  C           -2.76900782      -5.14609916       5.13522880
  C           -3.85955036      -1.77728198       3.21093411
--
  N          -33.38636347      -6.17836402      -4.69340168
  N          -35.52098597      -6.32046538      -1.10861384
  H          -37.65400382      -2.88770259      -1.60870389
  H          -34.99379000      -2.71413593      -6.00269891
  H          -32.93557546      -9.24064828      -2.14439904
  H          -36.26900428      -6.99950687       0.61176063
  C          -36.24207977      -4.17168985      -2.32889828
  C          -34.91045186      -4.10063917      -4.52346817
  C          -33.81990933      -7.46945636      -2.59917348
units = au
no_com
no_reorient
}

set {
  e_convergence 10
  d_convergence 10
  scf_type df
  mp2_type df
  cc_type df
  freeze_core true
}

energy('sapt0/aug-cc-pvdz')

--------------------------------------------------------------------------

  //              Dimer HF             //
    Molecular point group: c1
  Charge       = 0
  Multiplicity = 1
  Basis Set: AUG-CC-PVDZ
    Blend: AUG-CC-PVDZ
  Basis Set: (AUG-CC-PVDZ AUX)
    Blend: AUG-CC-PVDZ-JKFIT
  @DF-RHF Final Energy:  -449.68743015921098
    Total Energy =                       -449.6874301592109759
  //            Monomer A HF           //
    Molecular point group: c1
  Multiplicity = 1
  Basis Set: AUG-CC-PVDZ
    Blend: AUG-CC-PVDZ
  Basis Set: (AUG-CC-PVDZ AUX)
    Blend: AUG-CC-PVDZ-JKFIT
  @DF-RHF Final Energy:  -224.84369627909300
    Total Energy =                       -224.8436962790929954
  //            Monomer B HF           //
    Molecular point group: c1

    Geometry (in Bohr), charge = 0, multiplicity = 1:

       Center              X                  Y                   Z               Mass
    ------------   -----------------  -----------------  -----------------  -----------------
      Gh(N)          -4.293096210000    -3.068374310000     5.305162310000    14.003074004430
      Gh(N)          -2.158473710000    -2.926272960000     1.720374480000    14.003074004430
      Gh(H)          -0.025455870000    -6.359035750000     2.220464520000     1.007825032230
      Gh(H)          -2.685669680000    -6.532602410000     6.614459540000     1.007825032230
      Gh(H)          -4.743884230000    -0.006090060000     2.756159680000     1.007825032230
      Gh(H)          -1.410455400000    -2.247231470000     0.000000000000     1.007825032230
      Gh(C)          -1.437379910000    -5.075048480000     2.940658910000    12.000000000000
      Gh(C)          -2.769007820000    -5.146099160000     5.135228800000    12.000000000000
      Gh(C)          -3.859550360000    -1.777281980000     3.210934110000    12.000000000000
         N          -33.386363470000    -6.178364020000    -4.693401680000    14.003074004430
         N          -35.520985970000    -6.320465380000    -1.108613840000    14.003074004430
         H          -37.654003820000    -2.887702590000    -1.608703890000     1.007825032230
         H          -34.993790000000    -2.714135930000    -6.002698910000     1.007825032230
         H          -32.935575460000    -9.240648280000    -2.144399040000     1.007825032230
         H          -36.269004280000    -6.999506870000     0.611760630000     1.007825032230
         C          -36.242079770000    -4.171689850000    -2.328898280000    12.000000000000
         C          -34.910451860000    -4.100639170000    -4.523468170000    12.000000000000
         C          -33.819909330000    -7.469456360000    -2.599173480000    12.000000000000

  Charge       = 0
  Multiplicity = 1
  Basis Set: AUG-CC-PVDZ
    Blend: AUG-CC-PVDZ
  Basis Set: (AUG-CC-PVDZ AUX)
    Blend: AUG-CC-PVDZ-JKFIT

    Orbital Energies [Eh]
    ---------------------

    Doubly Occupied:

       1A    -15.637071     2A    -15.551216     3A    -11.300916
       4A    -11.263160     5A    -11.245653     6A     -1.352867
       7A     -1.169098     8A     -1.012098     9A     -0.824390
      10A     -0.803731    11A     -0.760666    12A     -0.610096
      13A     -0.603958    14A     -0.601922    15A     -0.570942
      16A     -0.435483    17A     -0.400464    18A     -0.320685

  @DF-RHF Final Energy:  -224.84369627925616

   => Energetics <=

    Nuclear Repulsion Energy =            164.0866958084465637
    One-Electron Energy =                -628.9319559343491619
    Two-Electron Energy =                 240.0015638466464338
    Total Energy =                       -224.8436962792561644

  Dipole Moment: [D]
     X:    -2.0431      Y:    -0.4150      Z:     3.3867     Total:     3.9769

    SAPT Results
  --------------------------------------------------------------------------------------------------------
    Electrostatics                 -0.03746131 [mEh]      -0.02350732 [kcal/mol]      -0.09835464 [kJ/mol]
      Elst10,r                     -0.03746131 [mEh]      -0.02350732 [kcal/mol]      -0.09835464 [kJ/mol]

    Exchange                       -0.00000000 [mEh]      -0.00000000 [kcal/mol]      -0.00000000 [kJ/mol]
      Exch10                       -0.00000000 [mEh]      -0.00000000 [kcal/mol]      -0.00000000 [kJ/mol]
      Exch10(S^2)                  -0.00000000 [mEh]      -0.00000000 [kcal/mol]      -0.00000000 [kJ/mol]

    Induction                      -0.00013956 [mEh]      -0.00008757 [kcal/mol]      -0.00036641 [kJ/mol]
      Ind20,r                      -0.00013926 [mEh]      -0.00008738 [kcal/mol]      -0.00036562 [kJ/mol]
      Exch-Ind20,r                  0.00000000 [mEh]       0.00000000 [kcal/mol]       0.00000000 [kJ/mol]
      delta HF,r (2)               -0.00000030 [mEh]      -0.00000019 [kcal/mol]      -0.00000079 [kJ/mol]

    Dispersion                     -0.00088554 [mEh]      -0.00055568 [kcal/mol]      -0.00232498 [kJ/mol]
      Disp20                       -0.00088554 [mEh]      -0.00055568 [kcal/mol]      -0.00232498 [kJ/mol]
      Exch-Disp20                   0.00000000 [mEh]       0.00000000 [kcal/mol]       0.00000000 [kJ/mol]
      Disp20 (SS)                  -0.00044277 [mEh]      -0.00027784 [kcal/mol]      -0.00116249 [kJ/mol]
      Disp20 (OS)                  -0.00044277 [mEh]      -0.00027784 [kcal/mol]      -0.00116249 [kJ/mol]
      Exch-Disp20 (SS)              0.00000000 [mEh]       0.00000000 [kcal/mol]       0.00000000 [kJ/mol]
      Exch-Disp20 (OS)              0.00000000 [mEh]       0.00000000 [kcal/mol]       0.00000000 [kJ/mol]

  Total HF                         -0.03760086 [mEh]      -0.02359490 [kcal/mol]      -0.09872105 [kJ/mol]
  Total SAPT0                      -0.03848640 [mEh]      -0.02415058 [kcal/mol]      -0.10104603 [kJ/mol]

  Special recipe for scaled SAPT0 (see Manual):
    Electrostatics sSAPT0          -0.03746131 [mEh]      -0.02350732 [kcal/mol]      -0.09835464 [kJ/mol]
    Exchange sSAPT0                -0.00000000 [mEh]      -0.00000000 [kcal/mol]      -0.00000000 [kJ/mol]
    Induction sSAPT0               -0.00013956 [mEh]      -0.00008757 [kcal/mol]      -0.00036641 [kJ/mol]
    Dispersion sSAPT0              -0.00088554 [mEh]      -0.00055568 [kcal/mol]      -0.00232498 [kJ/mol]
  Total sSAPT0                     -0.03848640 [mEh]      -0.02415058 [kcal/mol]      -0.10104603 [kJ/mol]
  --------------------------------------------------------------------------------------------------------

*** Psi4 exiting successfully. Buy a developer a beer!
