                               Psi4 1.4rc3

  ==> Input File <==

--------------------------------------------------------------------------
# PSI4 file produced by CrystaLattE

# Generated from:               imidazole.xyz
# Psithon input for N-mer:      2mer-0+396
# Number of atoms per monomer:  [9, 9]
# Number of replicas:           2
# COM priority:                 1.936093585059e-05
# Minimum COM separations:      19.707
# Separation priority:          3.134777229711e-05
# Minimum monomer separations:  16.783
# Cutoff priority:              9.884216390940e-07
# Nuclear repulsion energy:     362.92920134007693

memory 7 GB

molecule Dimer_0_396 {
  N           -4.29309621      -3.06837431       5.30516231
  N           -2.15847371      -2.92627296       1.72037448
  H           -0.02545587      -6.35903575       2.22046452
  H           -2.68566968      -6.53260241       6.61445954
  H           -4.74388423      -0.00609006       2.75615968
  H           -1.41045540      -2.24723147       0.00000000
  C           -1.43737991      -5.07504848       2.94065891
  C           -2.76900782      -5.14609916       5.13522880
  C           -3.85955036      -1.77728198       3.21093411
--
  N            1.51583252      12.15677114      35.76695762
  N           -0.61878998      12.29887249      39.35174546
  H           -2.75180782       8.86610970      38.85165542
  H           -0.09159401       8.69254304      34.45766040
  H            1.96662053      15.21905539      38.31596026
  H           -1.36680829      12.97791398      41.07211994
  C           -1.33988378      10.15009697      38.13146102
  C           -0.00825587      10.07904629      35.93689113
  C            1.08228667      13.44786347      37.86118582
units = au
no_com
no_reorient
}

set {
  e_convergence 10
  d_convergence 10
  scf_type df
  mp2_type df
  cc_type df
  freeze_core true
}

energy('sapt0/aug-cc-pvdz')

--------------------------------------------------------------------------

  //              Dimer HF             //
    Molecular point group: c1
  Charge       = 0
  Multiplicity = 1
  Basis Set: AUG-CC-PVDZ
    Blend: AUG-CC-PVDZ
  Basis Set: (AUG-CC-PVDZ AUX)
    Blend: AUG-CC-PVDZ-JKFIT
  @DF-RHF Final Energy:  -449.68736794526853
    Total Energy =                       -449.6873679452685337
  //            Monomer A HF           //
    Molecular point group: c1
  Multiplicity = 1
  Basis Set: AUG-CC-PVDZ
    Blend: AUG-CC-PVDZ
  Basis Set: (AUG-CC-PVDZ AUX)
    Blend: AUG-CC-PVDZ-JKFIT
  @DF-RHF Final Energy:  -224.84369627798895
    Total Energy =                       -224.8436962779889541
  //            Monomer B HF           //
    Molecular point group: c1

    Geometry (in Bohr), charge = 0, multiplicity = 1:

       Center              X                  Y                   Z               Mass
    ------------   -----------------  -----------------  -----------------  -----------------
      Gh(N)          -4.293096210000    -3.068374310000     5.305162310000    14.003074004430
      Gh(N)          -2.158473710000    -2.926272960000     1.720374480000    14.003074004430
      Gh(H)          -0.025455870000    -6.359035750000     2.220464520000     1.007825032230
      Gh(H)          -2.685669680000    -6.532602410000     6.614459540000     1.007825032230
      Gh(H)          -4.743884230000    -0.006090060000     2.756159680000     1.007825032230
      Gh(H)          -1.410455400000    -2.247231470000     0.000000000000     1.007825032230
      Gh(C)          -1.437379910000    -5.075048480000     2.940658910000    12.000000000000
      Gh(C)          -2.769007820000    -5.146099160000     5.135228800000    12.000000000000
      Gh(C)          -3.859550360000    -1.777281980000     3.210934110000    12.000000000000
         N            1.515832520000    12.156771140000    35.766957620000    14.003074004430
         N           -0.618789980000    12.298872490000    39.351745460000    14.003074004430
         H           -2.751807820000     8.866109700000    38.851655420000     1.007825032230
         H           -0.091594010000     8.692543040000    34.457660400000     1.007825032230
         H            1.966620530000    15.219055390000    38.315960260000     1.007825032230
         H           -1.366808290000    12.977913980000    41.072119940000     1.007825032230
         C           -1.339883780000    10.150096970000    38.131461020000    12.000000000000
         C           -0.008255870000    10.079046290000    35.936891130000    12.000000000000
         C            1.082286670000    13.447863470000    37.861185820000    12.000000000000

  Charge       = 0
  Multiplicity = 1
  Basis Set: AUG-CC-PVDZ
    Blend: AUG-CC-PVDZ
  Basis Set: (AUG-CC-PVDZ AUX)
    Blend: AUG-CC-PVDZ-JKFIT

    Orbital Energies [Eh]
    ---------------------

    Doubly Occupied:

       1A    -15.637071     2A    -15.551216     3A    -11.300916
       4A    -11.263160     5A    -11.245653     6A     -1.352867
       7A     -1.169098     8A     -1.012098     9A     -0.824390
      10A     -0.803731    11A     -0.760666    12A     -0.610096
      13A     -0.603958    14A     -0.601922    15A     -0.570942
      16A     -0.435483    17A     -0.400464    18A     -0.320685

  @DF-RHF Final Energy:  -224.84369627757823

   => Energetics <=

    Nuclear Repulsion Energy =            164.0866958847501849
    One-Electron Energy =                -628.9319560810610028
    Two-Electron Energy =                 240.0015639187326144
    Total Energy =                       -224.8436962775782320

  Dipole Moment: [D]
     X:    -2.0431      Y:     0.4150      Z:     3.3867     Total:     3.9769

    SAPT Results
  --------------------------------------------------------------------------------------------------------
    Electrostatics                  0.02469564 [mEh]       0.01549675 [kcal/mol]       0.06483839 [kJ/mol]
      Elst10,r                      0.02469564 [mEh]       0.01549675 [kcal/mol]       0.06483839 [kJ/mol]

    Exchange                        0.00000000 [mEh]       0.00000000 [kcal/mol]       0.00000000 [kJ/mol]
      Exch10                        0.00000000 [mEh]       0.00000000 [kcal/mol]       0.00000000 [kJ/mol]
      Exch10(S^2)                   0.00000000 [mEh]       0.00000000 [kcal/mol]       0.00000000 [kJ/mol]

    Induction                      -0.00008534 [mEh]      -0.00005355 [kcal/mol]      -0.00022406 [kJ/mol]
      Ind20,r                      -0.00010300 [mEh]      -0.00006463 [kcal/mol]      -0.00027041 [kJ/mol]
      Exch-Ind20,r                  0.00000000 [mEh]       0.00000000 [kcal/mol]       0.00000000 [kJ/mol]
      delta HF,r (2)                0.00001766 [mEh]       0.00001108 [kcal/mol]       0.00004636 [kJ/mol]

    Dispersion                     -0.00049499 [mEh]      -0.00031061 [kcal/mol]      -0.00129960 [kJ/mol]
      Disp20                       -0.00049499 [mEh]      -0.00031061 [kcal/mol]      -0.00129960 [kJ/mol]
      Exch-Disp20                   0.00000000 [mEh]       0.00000000 [kcal/mol]       0.00000000 [kJ/mol]
      Disp20 (SS)                  -0.00024749 [mEh]      -0.00015531 [kcal/mol]      -0.00064980 [kJ/mol]
      Disp20 (OS)                  -0.00024749 [mEh]      -0.00015531 [kcal/mol]      -0.00064980 [kJ/mol]
      Exch-Disp20 (SS)              0.00000000 [mEh]       0.00000000 [kcal/mol]       0.00000000 [kJ/mol]
      Exch-Disp20 (OS)              0.00000000 [mEh]       0.00000000 [kcal/mol]       0.00000000 [kJ/mol]

  Total HF                          0.02461030 [mEh]       0.01544320 [kcal/mol]       0.06461433 [kJ/mol]
  Total SAPT0                       0.02411531 [mEh]       0.01513258 [kcal/mol]       0.06331474 [kJ/mol]

  Special recipe for scaled SAPT0 (see Manual):
    Electrostatics sSAPT0           0.02469564 [mEh]       0.01549675 [kcal/mol]       0.06483839 [kJ/mol]
    Exchange sSAPT0                 0.00000000 [mEh]       0.00000000 [kcal/mol]       0.00000000 [kJ/mol]
    Induction sSAPT0               -0.00008534 [mEh]      -0.00005355 [kcal/mol]      -0.00022406 [kJ/mol]
    Dispersion sSAPT0              -0.00049499 [mEh]      -0.00031061 [kcal/mol]      -0.00129960 [kJ/mol]
  Total sSAPT0                      0.02411531 [mEh]       0.01513258 [kcal/mol]       0.06331474 [kJ/mol]
  --------------------------------------------------------------------------------------------------------

*** Psi4 exiting successfully. Buy a developer a beer!
