                               Psi4 1.4rc3

  ==> Input File <==

--------------------------------------------------------------------------
# PSI4 file produced by CrystaLattE

# Generated from:               imidazole.xyz
# Psithon input for N-mer:      2mer-0+91
# Number of atoms per monomer:  [9, 9]
# Number of replicas:           2
# COM priority:                 4.599261040020e-05
# Minimum COM separations:      14.770
# Separation priority:          9.726931946394e-05
# Minimum monomer separations:  11.506
# Cutoff priority:              4.473366727476e-06
# Nuclear repulsion energy:     374.7776468236925

memory 7 GB

molecule Dimer_0_91 {
  N           -4.29309621      -3.06837431       5.30516231
  N           -2.15847371      -2.92627296       1.72037448
  H           -0.02545587      -6.35903575       2.22046452
  H           -2.68566968      -6.53260241       6.61445954
  H           -4.74388423      -0.00609006       2.75615968
  H           -1.41045540      -2.24723147       0.00000000
  C           -1.43737991      -5.07504848       2.94065891
  C           -2.76900782      -5.14609916       5.13522880
  C           -3.85955036      -1.77728198       3.21093411
--
  N            9.15346162      -1.10331554     -18.97105327
  N           11.28808412      -1.24541690     -22.55584110
  H           13.42110197       2.18734590     -22.05575106
  H           10.76088815       2.36091255     -17.66175604
  H            8.70267361      -4.16559979     -21.52005591
  H           12.03610243      -1.92445838     -24.27621558
  C           12.00917792       0.90335863     -21.33555667
  C           10.67755001       0.97440931     -19.14098678
  C            9.58700747      -2.39440787     -21.06528147
units = au
no_com
no_reorient
}

set {
  e_convergence 10
  d_convergence 10
  scf_type df
  mp2_type df
  cc_type df
  freeze_core true
}

energy('sapt0/aug-cc-pvdz')

--------------------------------------------------------------------------

  //              Dimer HF             //
    Molecular point group: c1
  Charge       = 0
  Multiplicity = 1
  Basis Set: AUG-CC-PVDZ
    Blend: AUG-CC-PVDZ
  Basis Set: (AUG-CC-PVDZ AUX)
    Blend: AUG-CC-PVDZ-JKFIT
  @DF-RHF Final Energy:  -449.68764677159203
    Total Energy =                       -449.6876467715919716
  //            Monomer A HF           //
    Molecular point group: c1
  Multiplicity = 1
  Basis Set: AUG-CC-PVDZ
    Blend: AUG-CC-PVDZ
  Basis Set: (AUG-CC-PVDZ AUX)
    Blend: AUG-CC-PVDZ-JKFIT
  @DF-RHF Final Energy:  -224.84369628673389
    Total Energy =                       -224.8436962867338877
  //            Monomer B HF           //
    Molecular point group: c1

    Geometry (in Bohr), charge = 0, multiplicity = 1:

       Center              X                  Y                   Z               Mass
    ------------   -----------------  -----------------  -----------------  -----------------
      Gh(N)          -4.293096210000    -3.068374310000     5.305162310000    14.003074004430
      Gh(N)          -2.158473710000    -2.926272960000     1.720374480000    14.003074004430
      Gh(H)          -0.025455870000    -6.359035750000     2.220464520000     1.007825032230
      Gh(H)          -2.685669680000    -6.532602410000     6.614459540000     1.007825032230
      Gh(H)          -4.743884230000    -0.006090060000     2.756159680000     1.007825032230
      Gh(H)          -1.410455400000    -2.247231470000     0.000000000000     1.007825032230
      Gh(C)          -1.437379910000    -5.075048480000     2.940658910000    12.000000000000
      Gh(C)          -2.769007820000    -5.146099160000     5.135228800000    12.000000000000
      Gh(C)          -3.859550360000    -1.777281980000     3.210934110000    12.000000000000
         N            9.153461620000    -1.103315540000   -18.971053270000    14.003074004430
         N           11.288084120000    -1.245416900000   -22.555841100000    14.003074004430
         H           13.421101970000     2.187345900000   -22.055751060000     1.007825032230
         H           10.760888150000     2.360912550000   -17.661756040000     1.007825032230
         H            8.702673610000    -4.165599790000   -21.520055910000     1.007825032230
         H           12.036102430000    -1.924458380000   -24.276215580000     1.007825032230
         C           12.009177920000     0.903358630000   -21.335556670000    12.000000000000
         C           10.677550010000     0.974409310000   -19.140986780000    12.000000000000
         C            9.587007470000    -2.394407870000   -21.065281470000    12.000000000000

  Charge       = 0
  Multiplicity = 1
  Basis Set: AUG-CC-PVDZ
    Blend: AUG-CC-PVDZ
  Basis Set: (AUG-CC-PVDZ AUX)
    Blend: AUG-CC-PVDZ-JKFIT

    Orbital Energies [Eh]
    ---------------------

    Doubly Occupied:

       1A    -15.637071     2A    -15.551216     3A    -11.300916
       4A    -11.263160     5A    -11.245653     6A     -1.352867
       7A     -1.169098     8A     -1.012098     9A     -0.824390
      10A     -0.803731    11A     -0.760666    12A     -0.610096
      13A     -0.603958    14A     -0.601922    15A     -0.570942
      16A     -0.435483    17A     -0.400464    18A     -0.320685

  @DF-RHF Final Energy:  -224.84369629306525

   => Energetics <=

    Nuclear Repulsion Energy =            164.0866959673596739
    One-Electron Energy =                -628.9319564143288517
    Two-Electron Energy =                 240.0015641539039279
    Total Energy =                       -224.8436962930652498

  Dipole Moment: [D]
     X:     2.0431      Y:    -0.4150      Z:    -3.3867     Total:     3.9769

    SAPT Results
  --------------------------------------------------------------------------------------------------------
    Electrostatics                 -0.25284236 [mEh]      -0.15866098 [kcal/mol]      -0.66383753 [kJ/mol]
      Elst10,r                     -0.25284236 [mEh]      -0.15866098 [kcal/mol]      -0.66383753 [kJ/mol]

    Exchange                        0.00000001 [mEh]       0.00000001 [kcal/mol]       0.00000003 [kJ/mol]
      Exch10                        0.00000001 [mEh]       0.00000001 [kcal/mol]       0.00000003 [kJ/mol]
      Exch10(S^2)                   0.00000001 [mEh]       0.00000001 [kcal/mol]       0.00000003 [kJ/mol]

    Induction                      -0.00134944 [mEh]      -0.00084679 [kcal/mol]      -0.00354296 [kJ/mol]
      Ind20,r                      -0.00128810 [mEh]      -0.00080830 [kcal/mol]      -0.00338191 [kJ/mol]
      Exch-Ind20,r                  0.00000002 [mEh]       0.00000001 [kcal/mol]       0.00000006 [kJ/mol]
      delta HF,r (2)               -0.00006136 [mEh]      -0.00003851 [kcal/mol]      -0.00016111 [kJ/mol]

    Dispersion                     -0.00321905 [mEh]      -0.00201998 [kcal/mol]      -0.00845161 [kJ/mol]
      Disp20                       -0.00321905 [mEh]      -0.00201998 [kcal/mol]      -0.00845161 [kJ/mol]
      Exch-Disp20                   0.00000000 [mEh]       0.00000000 [kcal/mol]       0.00000000 [kJ/mol]
      Disp20 (SS)                  -0.00160952 [mEh]      -0.00100999 [kcal/mol]      -0.00422581 [kJ/mol]
      Disp20 (OS)                  -0.00160952 [mEh]      -0.00100999 [kcal/mol]      -0.00422581 [kJ/mol]
      Exch-Disp20 (SS)              0.00000000 [mEh]       0.00000000 [kcal/mol]       0.00000000 [kJ/mol]
      Exch-Disp20 (OS)              0.00000000 [mEh]       0.00000000 [kcal/mol]       0.00000000 [kJ/mol]

  Total HF                         -0.25419179 [mEh]      -0.15950776 [kcal/mol]      -0.66738046 [kJ/mol]
  Total SAPT0                      -0.25741084 [mEh]      -0.16152774 [kcal/mol]      -0.67583207 [kJ/mol]

  Special recipe for scaled SAPT0 (see Manual):
    Electrostatics sSAPT0          -0.25284236 [mEh]      -0.15866098 [kcal/mol]      -0.66383753 [kJ/mol]
    Exchange sSAPT0                 0.00000001 [mEh]       0.00000001 [kcal/mol]       0.00000003 [kJ/mol]
    Induction sSAPT0               -0.00134944 [mEh]      -0.00084679 [kcal/mol]      -0.00354296 [kJ/mol]
    Dispersion sSAPT0              -0.00321905 [mEh]      -0.00201998 [kcal/mol]      -0.00845161 [kJ/mol]
  Total sSAPT0                     -0.25741084 [mEh]      -0.16152774 [kcal/mol]      -0.67583207 [kJ/mol]
  --------------------------------------------------------------------------------------------------------

*** Psi4 exiting successfully. Buy a developer a beer!
