                               Psi4 1.4rc3

  ==> Input File <==

--------------------------------------------------------------------------
# PSI4 file produced by CrystaLattE

# Generated from:               imidazole.xyz
# Psithon input for N-mer:      2mer-0+237
# Number of atoms per monomer:  [9, 9]
# Number of replicas:           2
# COM priority:                 3.031256633394e-05
# Minimum COM separations:      16.972
# Separation priority:          4.249420907839e-05
# Minimum monomer separations:  15.164
# Cutoff priority:              1.482881113268e-06
# Nuclear repulsion energy:     368.4605450340032

memory 7 GB

molecule Dimer_0_237 {
  N           -4.29309621      -3.06837431       5.30516231
  N           -2.15847371      -2.92627296       1.72037448
  H           -0.02545587      -6.35903575       2.22046452
  H           -2.68566968      -6.53260241       6.61445954
  H           -4.74388423      -0.00609006       2.75615968
  H           -1.41045540      -2.24723147       0.00000000
  C           -1.43737991      -5.07504848       2.94065891
  C           -2.76900782      -5.14609916       5.13522880
  C           -3.85955036      -1.77728198       3.21093411
--
  N           24.80848584       2.00667417      19.58281390
  N           22.67386334       2.14877553      23.16760174
  H           20.54084549      -1.28398727      22.66751170
  H           23.20105931      -1.45755392      18.27351668
  H           25.25927385       5.06895842      22.13181654
  H           21.92584503       2.82781701      24.88797622
  C           21.95276954      -0.00000000      21.94731730
  C           23.28439745      -0.07105068      19.75274741
  C           24.37493998       3.29776650      21.67704210
units = au
no_com
no_reorient
}

set {
  e_convergence 10
  d_convergence 10
  scf_type df
  mp2_type df
  cc_type df
  freeze_core true
}

energy('sapt0/aug-cc-pvdz')

--------------------------------------------------------------------------

  //              Dimer HF             //
    Molecular point group: c1
  Charge       = 0
  Multiplicity = 1
  Basis Set: AUG-CC-PVDZ
    Blend: AUG-CC-PVDZ
  Basis Set: (AUG-CC-PVDZ AUX)
    Blend: AUG-CC-PVDZ-JKFIT
  @DF-RHF Final Energy:  -449.68745105827702
    Total Energy =                       -449.6874510582770199
  //            Monomer A HF           //
    Molecular point group: c1
  Multiplicity = 1
  Basis Set: AUG-CC-PVDZ
    Blend: AUG-CC-PVDZ
  Basis Set: (AUG-CC-PVDZ AUX)
    Blend: AUG-CC-PVDZ-JKFIT
  @DF-RHF Final Energy:  -224.84369627928268
    Total Energy =                       -224.8436962792826819
  //            Monomer B HF           //
    Molecular point group: c1

    Geometry (in Bohr), charge = 0, multiplicity = 1:

       Center              X                  Y                   Z               Mass
    ------------   -----------------  -----------------  -----------------  -----------------
      Gh(N)          -4.293096210000    -3.068374310000     5.305162310000    14.003074004430
      Gh(N)          -2.158473710000    -2.926272960000     1.720374480000    14.003074004430
      Gh(H)          -0.025455870000    -6.359035750000     2.220464520000     1.007825032230
      Gh(H)          -2.685669680000    -6.532602410000     6.614459540000     1.007825032230
      Gh(H)          -4.743884230000    -0.006090060000     2.756159680000     1.007825032230
      Gh(H)          -1.410455400000    -2.247231470000     0.000000000000     1.007825032230
      Gh(C)          -1.437379910000    -5.075048480000     2.940658910000    12.000000000000
      Gh(C)          -2.769007820000    -5.146099160000     5.135228800000    12.000000000000
      Gh(C)          -3.859550360000    -1.777281980000     3.210934110000    12.000000000000
         N           24.808485840000     2.006674170000    19.582813900000    14.003074004430
         N           22.673863340000     2.148775530000    23.167601740000    14.003074004430
         H           20.540845490000    -1.283987270000    22.667511700000     1.007825032230
         H           23.201059310000    -1.457553920000    18.273516680000     1.007825032230
         H           25.259273850000     5.068958420000    22.131816540000     1.007825032230
         H           21.925845030000     2.827817010000    24.887976220000     1.007825032230
         C           21.952769540000     0.000000000000    21.947317300000    12.000000000000
         C           23.284397450000    -0.071050680000    19.752747410000    12.000000000000
         C           24.374939980000     3.297766500000    21.677042100000    12.000000000000

  Charge       = 0
  Multiplicity = 1
  Basis Set: AUG-CC-PVDZ
    Blend: AUG-CC-PVDZ
  Basis Set: (AUG-CC-PVDZ AUX)
    Blend: AUG-CC-PVDZ-JKFIT

    Orbital Energies [Eh]
    ---------------------

    Doubly Occupied:

       1A    -15.637071     2A    -15.551216     3A    -11.300916
       4A    -11.263160     5A    -11.245653     6A     -1.352867
       7A     -1.169098     8A     -1.012098     9A     -0.824390
      10A     -0.803731    11A     -0.760666    12A     -0.610096
      13A     -0.603958    14A     -0.601922    15A     -0.570942
      16A     -0.435483    17A     -0.400464    18A     -0.320685

  @DF-RHF Final Energy:  -224.84369627953370

   => Energetics <=

    Nuclear Repulsion Energy =            164.0866958998936127
    One-Electron Energy =                -628.9319561178018603
    Two-Electron Energy =                 240.0015639383745736
    Total Energy =                       -224.8436962795337024

  Dipole Moment: [D]
     X:    -2.0431      Y:     0.4150      Z:     3.3867     Total:     3.9769

    SAPT Results
  --------------------------------------------------------------------------------------------------------
    Electrostatics                 -0.05840239 [mEh]      -0.03664805 [kcal/mol]      -0.15333545 [kJ/mol]
      Elst10,r                     -0.05840239 [mEh]      -0.03664805 [kcal/mol]      -0.15333545 [kJ/mol]

    Exchange                        0.00000000 [mEh]       0.00000000 [kcal/mol]       0.00000000 [kJ/mol]
      Exch10                        0.00000000 [mEh]       0.00000000 [kcal/mol]       0.00000000 [kJ/mol]
      Exch10(S^2)                   0.00000000 [mEh]       0.00000000 [kcal/mol]       0.00000000 [kJ/mol]

    Induction                      -0.00009707 [mEh]      -0.00006091 [kcal/mol]      -0.00025487 [kJ/mol]
      Ind20,r                      -0.00010708 [mEh]      -0.00006719 [kcal/mol]      -0.00028114 [kJ/mol]
      Exch-Ind20,r                  0.00000000 [mEh]       0.00000000 [kcal/mol]       0.00000000 [kJ/mol]
      delta HF,r (2)                0.00001001 [mEh]       0.00000628 [kcal/mol]       0.00002627 [kJ/mol]

    Dispersion                     -0.00105650 [mEh]      -0.00066296 [kcal/mol]      -0.00277384 [kJ/mol]
      Disp20                       -0.00105650 [mEh]      -0.00066296 [kcal/mol]      -0.00277384 [kJ/mol]
      Exch-Disp20                   0.00000000 [mEh]       0.00000000 [kcal/mol]       0.00000000 [kJ/mol]
      Disp20 (SS)                  -0.00052825 [mEh]      -0.00033148 [kcal/mol]      -0.00138692 [kJ/mol]
      Disp20 (OS)                  -0.00052825 [mEh]      -0.00033148 [kcal/mol]      -0.00138692 [kJ/mol]
      Exch-Disp20 (SS)              0.00000000 [mEh]       0.00000000 [kcal/mol]       0.00000000 [kJ/mol]
      Exch-Disp20 (OS)              0.00000000 [mEh]       0.00000000 [kcal/mol]       0.00000000 [kJ/mol]

  Total HF                         -0.05849946 [mEh]      -0.03670897 [kcal/mol]      -0.15359031 [kJ/mol]
  Total SAPT0                      -0.05955596 [mEh]      -0.03737193 [kcal/mol]      -0.15636415 [kJ/mol]

  Special recipe for scaled SAPT0 (see Manual):
    Electrostatics sSAPT0          -0.05840239 [mEh]      -0.03664805 [kcal/mol]      -0.15333545 [kJ/mol]
    Exchange sSAPT0                 0.00000000 [mEh]       0.00000000 [kcal/mol]       0.00000000 [kJ/mol]
    Induction sSAPT0               -0.00009707 [mEh]      -0.00006091 [kcal/mol]      -0.00025487 [kJ/mol]
    Dispersion sSAPT0              -0.00105650 [mEh]      -0.00066296 [kcal/mol]      -0.00277384 [kJ/mol]
  Total sSAPT0                     -0.05955596 [mEh]      -0.03737193 [kcal/mol]      -0.15636415 [kJ/mol]
  --------------------------------------------------------------------------------------------------------

*** Psi4 exiting successfully. Buy a developer a beer!
