                               Psi4 1.4rc3

  ==> Input File <==

--------------------------------------------------------------------------
# PSI4 file produced by CrystaLattE

# Generated from:               imidazole.xyz
# Psithon input for N-mer:      2mer-0+375
# Number of atoms per monomer:  [9, 9]
# Number of replicas:           1
# COM priority:                 2.161167498899e-05
# Minimum COM separations:      18.998
# Separation priority:          3.776791675844e-05
# Minimum monomer separations:  15.772
# Cutoff priority:              1.267157816743e-06
# Nuclear repulsion energy:     364.2647965893458

memory 7 GB

molecule Dimer_0_375 {
  N           -4.29309621      -3.06837431       5.30516231
  N           -2.15847371      -2.92627296       1.72037448
  H           -0.02545587      -6.35903575       2.22046452
  H           -2.68566968      -6.53260241       6.61445954
  H           -4.74388423      -0.00609006       2.75615968
  H           -1.41045540      -2.24723147       0.00000000
  C           -1.43737991      -5.07504848       2.94065891
  C           -2.76900782      -5.14609916       5.13522880
  C           -3.85955036      -1.77728198       3.21093411
--
  N           20.32629989     -16.32846099      27.67488576
  N           18.19167739     -16.47056235      31.25967360
  H           16.05865955     -13.03779955      30.75958356
  H           18.71887336     -12.86423289      26.36558854
  H           20.77708791     -19.39074524      30.22388840
  H           17.44365909     -17.14960383      32.98004808
  C           17.47058359     -14.32178682      30.03938916
  C           18.80221150     -14.25073614      27.84481927
  C           19.89275404     -17.61955332      29.76911396
units = au
no_com
no_reorient
}

set {
  e_convergence 10
  d_convergence 10
  scf_type df
  mp2_type df
  cc_type df
  freeze_core true
}

energy('sapt0/aug-cc-pvdz')

--------------------------------------------------------------------------

  //              Dimer HF             //
    Molecular point group: c1
  Charge       = 0
  Multiplicity = 1
  Basis Set: AUG-CC-PVDZ
    Blend: AUG-CC-PVDZ
  Basis Set: (AUG-CC-PVDZ AUX)
    Blend: AUG-CC-PVDZ-JKFIT
  @DF-RHF Final Energy:  -449.68742366874727
    Total Energy =                       -449.6874236687472148
  //            Monomer A HF           //
    Molecular point group: c1
  Multiplicity = 1
  Basis Set: AUG-CC-PVDZ
    Blend: AUG-CC-PVDZ
  Basis Set: (AUG-CC-PVDZ AUX)
    Blend: AUG-CC-PVDZ-JKFIT
  @DF-RHF Final Energy:  -224.84369627818191
    Total Energy =                       -224.8436962781819091
  //            Monomer B HF           //
    Molecular point group: c1

    Geometry (in Bohr), charge = 0, multiplicity = 1:

       Center              X                  Y                   Z               Mass
    ------------   -----------------  -----------------  -----------------  -----------------
      Gh(N)          -4.293096210000    -3.068374310000     5.305162310000    14.003074004430
      Gh(N)          -2.158473710000    -2.926272960000     1.720374480000    14.003074004430
      Gh(H)          -0.025455870000    -6.359035750000     2.220464520000     1.007825032230
      Gh(H)          -2.685669680000    -6.532602410000     6.614459540000     1.007825032230
      Gh(H)          -4.743884230000    -0.006090060000     2.756159680000     1.007825032230
      Gh(H)          -1.410455400000    -2.247231470000     0.000000000000     1.007825032230
      Gh(C)          -1.437379910000    -5.075048480000     2.940658910000    12.000000000000
      Gh(C)          -2.769007820000    -5.146099160000     5.135228800000    12.000000000000
      Gh(C)          -3.859550360000    -1.777281980000     3.210934110000    12.000000000000
         N           20.326299890000   -16.328460990000    27.674885760000    14.003074004430
         N           18.191677390000   -16.470562350000    31.259673600000    14.003074004430
         H           16.058659550000   -13.037799550000    30.759583560000     1.007825032230
         H           18.718873360000   -12.864232890000    26.365588540000     1.007825032230
         H           20.777087910000   -19.390745240000    30.223888400000     1.007825032230
         H           17.443659090000   -17.149603830000    32.980048080000     1.007825032230
         C           17.470583590000   -14.321786820000    30.039389160000    12.000000000000
         C           18.802211500000   -14.250736140000    27.844819270000    12.000000000000
         C           19.892754040000   -17.619553320000    29.769113960000    12.000000000000

  Charge       = 0
  Multiplicity = 1
  Basis Set: AUG-CC-PVDZ
    Blend: AUG-CC-PVDZ
  Basis Set: (AUG-CC-PVDZ AUX)
    Blend: AUG-CC-PVDZ-JKFIT

    Orbital Energies [Eh]
    ---------------------

    Doubly Occupied:

       1A    -15.637071     2A    -15.551216     3A    -11.300916
       4A    -11.263160     5A    -11.245653     6A     -1.352867
       7A     -1.169098     8A     -1.012098     9A     -0.824390
      10A     -0.803731    11A     -0.760666    12A     -0.610096
      13A     -0.603958    14A     -0.601922    15A     -0.570942
      16A     -0.435483    17A     -0.400464    18A     -0.320685

  @DF-RHF Final Energy:  -224.84369627933938

   => Energetics <=

    Nuclear Repulsion Energy =            164.0866958503379180
    One-Electron Energy =                -628.9319560169194574
    Two-Electron Energy =                 240.0015638872421277
    Total Energy =                       -224.8436962793393832

  Dipole Moment: [D]
     X:    -2.0431      Y:    -0.4150      Z:     3.3867     Total:     3.9769

    SAPT Results
  --------------------------------------------------------------------------------------------------------
    Electrostatics                 -0.03106385 [mEh]      -0.01949286 [kcal/mol]      -0.08155813 [kJ/mol]
      Elst10,r                     -0.03106385 [mEh]      -0.01949286 [kcal/mol]      -0.08155813 [kJ/mol]

    Exchange                        0.00000000 [mEh]       0.00000000 [kcal/mol]       0.00000000 [kJ/mol]
      Exch10                        0.00000000 [mEh]       0.00000000 [kcal/mol]       0.00000000 [kJ/mol]
      Exch10(S^2)                   0.00000000 [mEh]       0.00000000 [kcal/mol]       0.00000000 [kJ/mol]

    Induction                      -0.00004737 [mEh]      -0.00002973 [kcal/mol]      -0.00012438 [kJ/mol]
      Ind20,r                      -0.00006162 [mEh]      -0.00003867 [kcal/mol]      -0.00016179 [kJ/mol]
      Exch-Ind20,r                  0.00000000 [mEh]       0.00000000 [kcal/mol]       0.00000000 [kJ/mol]
      delta HF,r (2)                0.00001425 [mEh]       0.00000894 [kcal/mol]       0.00003741 [kJ/mol]

    Dispersion                     -0.00060634 [mEh]      -0.00038048 [kcal/mol]      -0.00159194 [kJ/mol]
      Disp20                       -0.00060634 [mEh]      -0.00038048 [kcal/mol]      -0.00159194 [kJ/mol]
      Exch-Disp20                   0.00000000 [mEh]       0.00000000 [kcal/mol]       0.00000000 [kJ/mol]
      Disp20 (SS)                  -0.00030317 [mEh]      -0.00019024 [kcal/mol]      -0.00079597 [kJ/mol]
      Disp20 (OS)                  -0.00030317 [mEh]      -0.00019024 [kcal/mol]      -0.00079597 [kJ/mol]
      Exch-Disp20 (SS)              0.00000000 [mEh]       0.00000000 [kcal/mol]       0.00000000 [kJ/mol]
      Exch-Disp20 (OS)              0.00000000 [mEh]       0.00000000 [kcal/mol]       0.00000000 [kJ/mol]

  Total HF                         -0.03111123 [mEh]      -0.01952259 [kcal/mol]      -0.08168251 [kJ/mol]
  Total SAPT0                      -0.03171756 [mEh]      -0.01990307 [kcal/mol]      -0.08327445 [kJ/mol]

  Special recipe for scaled SAPT0 (see Manual):
    Electrostatics sSAPT0          -0.03106385 [mEh]      -0.01949286 [kcal/mol]      -0.08155813 [kJ/mol]
    Exchange sSAPT0                 0.00000000 [mEh]       0.00000000 [kcal/mol]       0.00000000 [kJ/mol]
    Induction sSAPT0               -0.00004737 [mEh]      -0.00002973 [kcal/mol]      -0.00012438 [kJ/mol]
    Dispersion sSAPT0              -0.00060634 [mEh]      -0.00038048 [kcal/mol]      -0.00159194 [kJ/mol]
  Total sSAPT0                     -0.03171756 [mEh]      -0.01990307 [kcal/mol]      -0.08327445 [kJ/mol]
  --------------------------------------------------------------------------------------------------------

*** Psi4 exiting successfully. Buy a developer a beer!
