                               Psi4 1.4rc3

  ==> Input File <==

--------------------------------------------------------------------------
# PSI4 file produced by CrystaLattE

# Generated from:               imidazole.xyz
# Psithon input for N-mer:      2mer-0+9
# Number of atoms per monomer:  [9, 9]
# Number of replicas:           2
# COM priority:                 2.635795024434e-04
# Minimum COM separations:      8.253
# Separation priority:          1.283554269134e-03
# Minimum monomer separations:  4.869
# Cutoff priority:              1.394929677267e-04
# Nuclear repulsion energy:     412.20710954705334

memory 7 GB

molecule Dimer_0_9 {
  N           -4.29309621      -3.06837431       5.30516231
  N           -2.15847371      -2.92627296       1.72037448
  H           -0.02545587      -6.35903575       2.22046452
  H           -2.68566968      -6.53260241       6.61445954
  H           -4.74388423      -0.00609006       2.75615968
  H           -1.41045540      -2.24723147       0.00000000
  C           -1.43737991      -5.07504848       2.94065891
  C           -2.76900782      -5.14609916       5.13522880
  C           -3.85955036      -1.77728198       3.21093411
--
  N           -0.24761467       2.00667417     -12.78547354
  N           -2.38223717       2.14877553      -9.20068571
  H           -4.51525502      -1.28398727      -9.70077575
  H           -1.85504120      -1.45755392     -14.09477077
  H            0.20317334       5.06895842     -10.23647090
  H           -3.13025548       2.82781701      -7.48031123
  C           -3.10333097      -0.00000000     -10.42097014
  C           -1.77170306      -0.07105068     -12.61554003
  C           -0.68116052       3.29776650     -10.69124534
units = au
no_com
no_reorient
}

set {
  e_convergence 10
  d_convergence 10
  scf_type df
  mp2_type df
  cc_type df
  freeze_core true
}

energy('sapt0/aug-cc-pvdz')

--------------------------------------------------------------------------

  //              Dimer HF             //
    Molecular point group: c1
  Charge       = 0
  Multiplicity = 1
  Basis Set: AUG-CC-PVDZ
    Blend: AUG-CC-PVDZ
  Basis Set: (AUG-CC-PVDZ AUX)
    Blend: AUG-CC-PVDZ-JKFIT
  @DF-RHF Final Energy:  -449.68667903954952
    Total Energy =                       -449.6866790395495173
  //            Monomer A HF           //
    Molecular point group: c1
  Multiplicity = 1
  Basis Set: AUG-CC-PVDZ
    Blend: AUG-CC-PVDZ
  Basis Set: (AUG-CC-PVDZ AUX)
    Blend: AUG-CC-PVDZ-JKFIT
  @DF-RHF Final Energy:  -224.84371030294943
    Total Energy =                       -224.8437103029494324
  //            Monomer B HF           //
    Molecular point group: c1

    Geometry (in Bohr), charge = 0, multiplicity = 1:

       Center              X                  Y                   Z               Mass
    ------------   -----------------  -----------------  -----------------  -----------------
      Gh(N)          -4.293096210000    -3.068374310000     5.305162310000    14.003074004430
      Gh(N)          -2.158473710000    -2.926272960000     1.720374480000    14.003074004430
      Gh(H)          -0.025455870000    -6.359035750000     2.220464520000     1.007825032230
      Gh(H)          -2.685669680000    -6.532602410000     6.614459540000     1.007825032230
      Gh(H)          -4.743884230000    -0.006090060000     2.756159680000     1.007825032230
      Gh(H)          -1.410455400000    -2.247231470000     0.000000000000     1.007825032230
      Gh(C)          -1.437379910000    -5.075048480000     2.940658910000    12.000000000000
      Gh(C)          -2.769007820000    -5.146099160000     5.135228800000    12.000000000000
      Gh(C)          -3.859550360000    -1.777281980000     3.210934110000    12.000000000000
         N           -0.247614670000     2.006674170000   -12.785473540000    14.003074004430
         N           -2.382237170000     2.148775530000    -9.200685710000    14.003074004430
         H           -4.515255020000    -1.283987270000    -9.700775750000     1.007825032230
         H           -1.855041200000    -1.457553920000   -14.094770770000     1.007825032230
         H            0.203173340000     5.068958420000   -10.236470900000     1.007825032230
         H           -3.130255480000     2.827817010000    -7.480311230000     1.007825032230
         C           -3.103330970000     0.000000000000   -10.420970140000    12.000000000000
         C           -1.771703060000    -0.071050680000   -12.615540030000    12.000000000000
         C           -0.681160520000     3.297766500000   -10.691245340000    12.000000000000

  Charge       = 0
  Multiplicity = 1
  Basis Set: AUG-CC-PVDZ
    Blend: AUG-CC-PVDZ
  Basis Set: (AUG-CC-PVDZ AUX)
    Blend: AUG-CC-PVDZ-JKFIT

    Orbital Energies [Eh]
    ---------------------

    Doubly Occupied:

       1A    -15.637080     2A    -15.551213     3A    -11.300918
       4A    -11.263157     5A    -11.245651     6A     -1.352868
       7A     -1.169099     8A     -1.012099     9A     -0.824391
      10A     -0.803733    11A     -0.760669    12A     -0.610098
      13A     -0.603958    14A     -0.601926    15A     -0.570942
      16A     -0.435480    17A     -0.400468    18A     -0.320684

  @DF-RHF Final Energy:  -224.84371265865164

   => Energetics <=

    Nuclear Repulsion Energy =            164.0866959673597023
    One-Electron Energy =                -628.9319452376030313
    Two-Electron Energy =                 240.0015366115917175
    Total Energy =                       -224.8437126586516399

  Dipole Moment: [D]
     X:    -2.0432      Y:     0.4154      Z:     3.3880     Total:     3.9782

    SAPT Results
  --------------------------------------------------------------------------------------------------------
    Electrostatics                  0.78196391 [mEh]       0.49068976 [kcal/mol]       2.05304596 [kJ/mol]
      Elst10,r                      0.78196391 [mEh]       0.49068976 [kcal/mol]       2.05304596 [kJ/mol]

    Exchange                        0.00017484 [mEh]       0.00010971 [kcal/mol]       0.00045904 [kJ/mol]
      Exch10                        0.00017484 [mEh]       0.00010971 [kcal/mol]       0.00045904 [kJ/mol]
      Exch10(S^2)                   0.00017484 [mEh]       0.00010971 [kcal/mol]       0.00045904 [kJ/mol]

    Induction                      -0.03821670 [mEh]      -0.02398134 [kcal/mol]      -0.10033792 [kJ/mol]
      Ind20,r                      -0.03883879 [mEh]      -0.02437171 [kcal/mol]      -0.10197124 [kJ/mol]
      Exch-Ind20,r                  0.00005743 [mEh]       0.00003604 [kcal/mol]       0.00015078 [kJ/mol]
      delta HF,r (2)                0.00056467 [mEh]       0.00035433 [kcal/mol]       0.00148253 [kJ/mol]

    Dispersion                     -0.12877093 [mEh]      -0.08080498 [kcal/mol]      -0.33808803 [kJ/mol]
      Disp20                       -0.12880416 [mEh]      -0.08082583 [kcal/mol]      -0.33817528 [kJ/mol]
      Exch-Disp20                   0.00003323 [mEh]       0.00002085 [kcal/mol]       0.00008725 [kJ/mol]
      Disp20 (SS)                  -0.06440208 [mEh]      -0.04041292 [kcal/mol]      -0.16908764 [kJ/mol]
      Disp20 (OS)                  -0.06440208 [mEh]      -0.04041292 [kcal/mol]      -0.16908764 [kJ/mol]
      Exch-Disp20 (SS)              0.00002452 [mEh]       0.00001539 [kcal/mol]       0.00006438 [kJ/mol]
      Exch-Disp20 (OS)              0.00000871 [mEh]       0.00000546 [kcal/mol]       0.00002286 [kJ/mol]

  Total HF                          0.74392205 [mEh]       0.46681814 [kcal/mol]       1.95316708 [kJ/mol]
  Total SAPT0                       0.61515112 [mEh]       0.38601316 [kcal/mol]       1.61507905 [kJ/mol]

  Special recipe for scaled SAPT0 (see Manual):
    Electrostatics sSAPT0           0.78196391 [mEh]       0.49068976 [kcal/mol]       2.05304596 [kJ/mol]
    Exchange sSAPT0                 0.00017484 [mEh]       0.00010971 [kcal/mol]       0.00045904 [kJ/mol]
    Induction sSAPT0               -0.03821670 [mEh]      -0.02398134 [kcal/mol]      -0.10033792 [kJ/mol]
    Dispersion sSAPT0              -0.12877093 [mEh]      -0.08080498 [kcal/mol]      -0.33808803 [kJ/mol]
  Total sSAPT0                      0.61515112 [mEh]       0.38601316 [kcal/mol]       1.61507905 [kJ/mol]
  --------------------------------------------------------------------------------------------------------

*** Psi4 exiting successfully. Buy a developer a beer!
