                               Psi4 1.4rc3

  ==> Input File <==

--------------------------------------------------------------------------
# PSI4 file produced by CrystaLattE

# Generated from:               imidazole.xyz
# Psithon input for N-mer:      2mer-0+276
# Number of atoms per monomer:  [9, 9]
# Number of replicas:           1
# COM priority:                 4.409714986409e-05
# Minimum COM separations:      14.978
# Separation priority:          6.620964896774e-05
# Minimum monomer separations:  13.081
# Cutoff priority:              2.678520947296e-06
# Nuclear repulsion energy:     373.8032580108539

memory 7 GB

molecule Dimer_0_276 {
  N           -4.29309621      -3.06837431       5.30516231
  N           -2.15847371      -2.92627296       1.72037448
  H           -0.02545587      -6.35903575       2.22046452
  H           -2.68566968      -6.53260241       6.61445954
  H           -4.74388423      -0.00609006       2.75615968
  H           -1.41045540      -2.24723147       0.00000000
  C           -1.43737991      -5.07504848       2.94065891
  C           -2.76900782      -5.14609916       5.13522880
  C           -3.85955036      -1.77728198       3.21093411
--
  N          -28.02245393      -6.17836402      11.49074204
  N          -30.15707643      -6.32046538      15.07552988
  H          -32.29009428      -2.88770259      14.57543984
  H          -29.62988046      -2.71413593      10.18144482
  H          -27.57166592      -9.24064828      14.03974468
  H          -30.90509474      -6.99950687      16.79590435
  C          -30.87817023      -4.17168985      13.85524544
  C          -29.54654232      -4.10063917      11.66067555
  C          -28.45599979      -7.46945636      13.58497024
units = au
no_com
no_reorient
}

set {
  e_convergence 10
  d_convergence 10
  scf_type df
  mp2_type df
  cc_type df
  freeze_core true
}

energy('sapt0/aug-cc-pvdz')

--------------------------------------------------------------------------

  //              Dimer HF             //
    Molecular point group: c1
  Charge       = 0
  Multiplicity = 1
  Basis Set: AUG-CC-PVDZ
    Blend: AUG-CC-PVDZ
  Basis Set: (AUG-CC-PVDZ AUX)
    Blend: AUG-CC-PVDZ-JKFIT
  @DF-RHF Final Energy:  -449.68726559443570
    Total Energy =                       -449.6872655944356438
  //            Monomer A HF           //
    Molecular point group: c1
  Multiplicity = 1
  Basis Set: AUG-CC-PVDZ
    Blend: AUG-CC-PVDZ
  Basis Set: (AUG-CC-PVDZ AUX)
    Blend: AUG-CC-PVDZ-JKFIT
  @DF-RHF Final Energy:  -224.84369628026349
    Total Energy =                       -224.8436962802634866
  //            Monomer B HF           //
    Molecular point group: c1

    Geometry (in Bohr), charge = 0, multiplicity = 1:

       Center              X                  Y                   Z               Mass
    ------------   -----------------  -----------------  -----------------  -----------------
      Gh(N)          -4.293096210000    -3.068374310000     5.305162310000    14.003074004430
      Gh(N)          -2.158473710000    -2.926272960000     1.720374480000    14.003074004430
      Gh(H)          -0.025455870000    -6.359035750000     2.220464520000     1.007825032230
      Gh(H)          -2.685669680000    -6.532602410000     6.614459540000     1.007825032230
      Gh(H)          -4.743884230000    -0.006090060000     2.756159680000     1.007825032230
      Gh(H)          -1.410455400000    -2.247231470000     0.000000000000     1.007825032230
      Gh(C)          -1.437379910000    -5.075048480000     2.940658910000    12.000000000000
      Gh(C)          -2.769007820000    -5.146099160000     5.135228800000    12.000000000000
      Gh(C)          -3.859550360000    -1.777281980000     3.210934110000    12.000000000000
         N          -28.022453930000    -6.178364020000    11.490742040000    14.003074004430
         N          -30.157076430000    -6.320465380000    15.075529880000    14.003074004430
         H          -32.290094280000    -2.887702590000    14.575439840000     1.007825032230
         H          -29.629880460000    -2.714135930000    10.181444820000     1.007825032230
         H          -27.571665920000    -9.240648280000    14.039744680000     1.007825032230
         H          -30.905094740000    -6.999506870000    16.795904350000     1.007825032230
         C          -30.878170230000    -4.171689850000    13.855245440000    12.000000000000
         C          -29.546542320000    -4.100639170000    11.660675550000    12.000000000000
         C          -28.455999790000    -7.469456360000    13.584970240000    12.000000000000

  Charge       = 0
  Multiplicity = 1
  Basis Set: AUG-CC-PVDZ
    Blend: AUG-CC-PVDZ
  Basis Set: (AUG-CC-PVDZ AUX)
    Blend: AUG-CC-PVDZ-JKFIT

    Orbital Energies [Eh]
    ---------------------

    Doubly Occupied:

       1A    -15.637071     2A    -15.551216     3A    -11.300916
       4A    -11.263160     5A    -11.245653     6A     -1.352867
       7A     -1.169098     8A     -1.012098     9A     -0.824390
      10A     -0.803731    11A     -0.760666    12A     -0.610096
      13A     -0.603958    14A     -0.601922    15A     -0.570942
      16A     -0.435483    17A     -0.400464    18A     -0.320685

  @DF-RHF Final Energy:  -224.84369628110494

   => Energetics <=

    Nuclear Repulsion Energy =            164.0866958182861595
    One-Electron Energy =                -628.9319559578699455
    Two-Electron Energy =                 240.0015638584788462
    Total Energy =                       -224.8436962811049398

  Dipole Moment: [D]
     X:    -2.0431      Y:    -0.4150      Z:     3.3867     Total:     3.9769

    SAPT Results
  --------------------------------------------------------------------------------------------------------
    Electrostatics                  0.12761030 [mEh]       0.08007667 [kcal/mol]       0.33504078 [kJ/mol]
      Elst10,r                      0.12761030 [mEh]       0.08007667 [kcal/mol]       0.33504078 [kJ/mol]

    Exchange                        0.00000000 [mEh]       0.00000000 [kcal/mol]       0.00000000 [kJ/mol]
      Exch10                        0.00000000 [mEh]       0.00000000 [kcal/mol]       0.00000000 [kJ/mol]
      Exch10(S^2)                   0.00000000 [mEh]       0.00000000 [kcal/mol]       0.00000000 [kJ/mol]

    Induction                      -0.00064336 [mEh]      -0.00040372 [kcal/mol]      -0.00168915 [kJ/mol]
      Ind20,r                      -0.00066872 [mEh]      -0.00041963 [kcal/mol]      -0.00175573 [kJ/mol]
      Exch-Ind20,r                  0.00000000 [mEh]       0.00000000 [kcal/mol]       0.00000000 [kJ/mol]
      delta HF,r (2)                0.00002536 [mEh]       0.00001591 [kcal/mol]       0.00006658 [kJ/mol]

    Dispersion                     -0.00247478 [mEh]      -0.00155295 [kcal/mol]      -0.00649753 [kJ/mol]
      Disp20                       -0.00247478 [mEh]      -0.00155295 [kcal/mol]      -0.00649753 [kJ/mol]
      Exch-Disp20                   0.00000000 [mEh]       0.00000000 [kcal/mol]       0.00000000 [kJ/mol]
      Disp20 (SS)                  -0.00123739 [mEh]      -0.00077647 [kcal/mol]      -0.00324876 [kJ/mol]
      Disp20 (OS)                  -0.00123739 [mEh]      -0.00077647 [kcal/mol]      -0.00324876 [kJ/mol]
      Exch-Disp20 (SS)              0.00000000 [mEh]       0.00000000 [kcal/mol]       0.00000000 [kJ/mol]
      Exch-Disp20 (OS)              0.00000000 [mEh]       0.00000000 [kcal/mol]       0.00000000 [kJ/mol]

  Total HF                          0.12696693 [mEh]       0.07967295 [kcal/mol]       0.33335164 [kJ/mol]
  Total SAPT0                       0.12449215 [mEh]       0.07812001 [kcal/mol]       0.32685411 [kJ/mol]

  Special recipe for scaled SAPT0 (see Manual):
    Electrostatics sSAPT0           0.12761030 [mEh]       0.08007667 [kcal/mol]       0.33504078 [kJ/mol]
    Exchange sSAPT0                 0.00000000 [mEh]       0.00000000 [kcal/mol]       0.00000000 [kJ/mol]
    Induction sSAPT0               -0.00064336 [mEh]      -0.00040372 [kcal/mol]      -0.00168915 [kJ/mol]
    Dispersion sSAPT0              -0.00247478 [mEh]      -0.00155295 [kcal/mol]      -0.00649753 [kJ/mol]
  Total sSAPT0                      0.12449215 [mEh]       0.07812001 [kcal/mol]       0.32685411 [kJ/mol]
  --------------------------------------------------------------------------------------------------------

*** Psi4 exiting successfully. Buy a developer a beer!
