                               Psi4 1.4rc3

  ==> Input File <==

--------------------------------------------------------------------------
# PSI4 file produced by CrystaLattE

# Generated from:               imidazole.xyz
# Psithon input for N-mer:      2mer-0+19
# Number of atoms per monomer:  [9, 9]
# Number of replicas:           2
# COM priority:                 4.460707253059e-04
# Minimum COM separations:      6.926
# Separation priority:          1.294784007245e-03
# Minimum monomer separations:  4.855
# Cutoff priority:              1.411225565090e-04
# Nuclear repulsion energy:     425.27633322477976

memory 7 GB

molecule Dimer_0_19 {
  N           -4.29309621      -3.06837431       5.30516231
  N           -2.15847371      -2.92627296       1.72037448
  H           -0.02545587      -6.35903575       2.22046452
  H           -2.68566968      -6.53260241       6.61445954
  H           -4.74388423      -0.00609006       2.75615968
  H           -1.41045540      -2.24723147       0.00000000
  C           -1.43737991      -5.07504848       2.94065891
  C           -2.76900782      -5.14609916       5.13522880
  C           -3.85955036      -1.77728198       3.21093411
--
  N          -14.13919170      -1.10331554      -2.78690955
  N          -12.00456920      -1.24541690      -6.37169738
  H           -9.87155135       2.18734590      -5.87160734
  H          -12.53176517       2.36091255      -1.47761232
  H          -14.58997971      -4.16559979      -5.33591219
  H          -11.25655089      -1.92445838      -8.09207186
  C          -11.28347540       0.90335863      -5.15141295
  C          -12.61510330       0.97440931      -2.95684306
  C          -13.70564584      -2.39440787      -4.88113775
units = au
no_com
no_reorient
}

set {
  e_convergence 10
  d_convergence 10
  scf_type df
  mp2_type df
  cc_type df
  freeze_core true
}

energy('sapt0/aug-cc-pvdz')

--------------------------------------------------------------------------

  //              Dimer HF             //
    Molecular point group: c1
  Charge       = 0
  Multiplicity = 1
  Basis Set: AUG-CC-PVDZ
    Blend: AUG-CC-PVDZ
  Basis Set: (AUG-CC-PVDZ AUX)
    Blend: AUG-CC-PVDZ-JKFIT
  @DF-RHF Final Energy:  -449.68668650178705
    Total Energy =                       -449.6866865017869941
  //            Monomer A HF           //
    Molecular point group: c1
  Multiplicity = 1
  Basis Set: AUG-CC-PVDZ
    Blend: AUG-CC-PVDZ
  Basis Set: (AUG-CC-PVDZ AUX)
    Blend: AUG-CC-PVDZ-JKFIT
  @DF-RHF Final Energy:  -224.84372450947794
    Total Energy =                       -224.8437245094779371
  //            Monomer B HF           //
    Molecular point group: c1

    Geometry (in Bohr), charge = 0, multiplicity = 1:

       Center              X                  Y                   Z               Mass
    ------------   -----------------  -----------------  -----------------  -----------------
      Gh(N)          -4.293096210000    -3.068374310000     5.305162310000    14.003074004430
      Gh(N)          -2.158473710000    -2.926272960000     1.720374480000    14.003074004430
      Gh(H)          -0.025455870000    -6.359035750000     2.220464520000     1.007825032230
      Gh(H)          -2.685669680000    -6.532602410000     6.614459540000     1.007825032230
      Gh(H)          -4.743884230000    -0.006090060000     2.756159680000     1.007825032230
      Gh(H)          -1.410455400000    -2.247231470000     0.000000000000     1.007825032230
      Gh(C)          -1.437379910000    -5.075048480000     2.940658910000    12.000000000000
      Gh(C)          -2.769007820000    -5.146099160000     5.135228800000    12.000000000000
      Gh(C)          -3.859550360000    -1.777281980000     3.210934110000    12.000000000000
         N          -14.139191700000    -1.103315540000    -2.786909550000    14.003074004430
         N          -12.004569200000    -1.245416900000    -6.371697380000    14.003074004430
         H           -9.871551350000     2.187345900000    -5.871607340000     1.007825032230
         H          -12.531765170000     2.360912550000    -1.477612320000     1.007825032230
         H          -14.589979710000    -4.165599790000    -5.335912190000     1.007825032230
         H          -11.256550890000    -1.924458380000    -8.092071860000     1.007825032230
         C          -11.283475400000     0.903358630000    -5.151412950000    12.000000000000
         C          -12.615103300000     0.974409310000    -2.956843060000    12.000000000000
         C          -13.705645840000    -2.394407870000    -4.881137750000    12.000000000000

  Charge       = 0
  Multiplicity = 1
  Basis Set: AUG-CC-PVDZ
    Blend: AUG-CC-PVDZ
  Basis Set: (AUG-CC-PVDZ AUX)
    Blend: AUG-CC-PVDZ-JKFIT

    Orbital Energies [Eh]
    ---------------------

    Doubly Occupied:

       1A    -15.637081     2A    -15.551228     3A    -11.300920
       4A    -11.263169     5A    -11.245657     6A     -1.352877
       7A     -1.169109     8A     -1.012109     9A     -0.824398
      10A     -0.803741    11A     -0.760677    12A     -0.610105
      13A     -0.603964    14A     -0.601932    15A     -0.570957
      16A     -0.435492    17A     -0.400473    18A     -0.320695

  @DF-RHF Final Energy:  -224.84374162971113

   => Energetics <=

    Nuclear Repulsion Energy =            164.0866960067861555
    One-Electron Energy =                -628.9317103856666336
    Two-Electron Energy =                 240.0012727491693454
    Total Energy =                       -224.8437416297111326

  Dipole Moment: [D]
     X:     2.0434      Y:    -0.4148      Z:    -3.3864     Total:     3.9768

    SAPT Results
  --------------------------------------------------------------------------------------------------------
    Electrostatics                  0.80898970 [mEh]       0.50764870 [kcal/mol]       2.12400217 [kJ/mol]
      Elst10,r                      0.80898970 [mEh]       0.50764870 [kcal/mol]       2.12400217 [kJ/mol]

    Exchange                        0.00430904 [mEh]       0.00270396 [kcal/mol]       0.01131337 [kJ/mol]
      Exch10                        0.00430904 [mEh]       0.00270396 [kcal/mol]       0.01131337 [kJ/mol]
      Exch10(S^2)                   0.00430900 [mEh]       0.00270394 [kcal/mol]       0.01131328 [kJ/mol]

    Induction                      -0.03366133 [mEh]      -0.02112281 [kcal/mol]      -0.08837782 [kJ/mol]
      Ind20,r                      -0.03526226 [mEh]      -0.02212740 [kcal/mol]      -0.09258105 [kJ/mol]
      Exch-Ind20,r                  0.00157692 [mEh]       0.00098953 [kcal/mol]       0.00414020 [kJ/mol]
      delta HF,r (2)                0.00002401 [mEh]       0.00001507 [kcal/mol]       0.00006303 [kJ/mol]

    Dispersion                     -0.26804670 [mEh]      -0.16820184 [kcal/mol]      -0.70375652 [kJ/mol]
      Disp20                       -0.26902273 [mEh]      -0.16881431 [kcal/mol]      -0.70631907 [kJ/mol]
      Exch-Disp20                   0.00097602 [mEh]       0.00061246 [kcal/mol]       0.00256255 [kJ/mol]
      Disp20 (SS)                  -0.13451136 [mEh]      -0.08440715 [kcal/mol]      -0.35315954 [kJ/mol]
      Disp20 (OS)                  -0.13451136 [mEh]      -0.08440715 [kcal/mol]      -0.35315954 [kJ/mol]
      Exch-Disp20 (SS)              0.00069850 [mEh]       0.00043832 [kcal/mol]       0.00183392 [kJ/mol]
      Exch-Disp20 (OS)              0.00027752 [mEh]       0.00017415 [kcal/mol]       0.00072863 [kJ/mol]

  Total HF                          0.77963740 [mEh]       0.48922986 [kcal/mol]       2.04693772 [kJ/mol]
  Total SAPT0                       0.51159070 [mEh]       0.32102801 [kcal/mol]       1.34318120 [kJ/mol]

  Special recipe for scaled SAPT0 (see Manual):
    Electrostatics sSAPT0           0.80898970 [mEh]       0.50764870 [kcal/mol]       2.12400217 [kJ/mol]
    Exchange sSAPT0                 0.00430904 [mEh]       0.00270396 [kcal/mol]       0.01131337 [kJ/mol]
    Induction sSAPT0               -0.03366133 [mEh]      -0.02112281 [kcal/mol]      -0.08837782 [kJ/mol]
    Dispersion sSAPT0              -0.26804670 [mEh]      -0.16820184 [kcal/mol]      -0.70375652 [kJ/mol]
  Total sSAPT0                      0.51159070 [mEh]       0.32102801 [kcal/mol]       1.34318120 [kJ/mol]
  --------------------------------------------------------------------------------------------------------

*** Psi4 exiting successfully. Buy a developer a beer!
