                               Psi4 1.4rc3

  ==> Input File <==

--------------------------------------------------------------------------
# PSI4 file produced by CrystaLattE

# Generated from:               imidazole.xyz
# Psithon input for N-mer:      2mer-0+449
# Number of atoms per monomer:  [9, 9]
# Number of replicas:           1
# COM priority:                 1.655199004099e-05
# Minimum COM separations:      20.764
# Separation priority:          2.884210056862e-05
# Minimum monomer separations:  17.255
# Cutoff priority:              8.845095285461e-07
# Nuclear repulsion energy:     361.2785538394246

memory 7 GB

molecule Dimer_0_449 {
  N           -4.29309621      -3.06837431       5.30516231
  N           -2.15847371      -2.92627296       1.72037448
  H           -0.02545587      -6.35903575       2.22046452
  H           -2.68566968      -6.53260241       6.61445954
  H           -4.74388423      -0.00609006       2.75615968
  H           -1.41045540      -2.24723147       0.00000000
  C           -1.43737991      -5.07504848       2.94065891
  C           -2.76900782      -5.14609916       5.13522880
  C           -3.85955036      -1.77728198       3.21093411
--
  N           29.29067178     -26.47855795      11.49074204
  N           27.15604928     -26.62065931      15.07552988
  H           25.02303144     -23.18789652      14.57543984
  H           27.68324525     -23.01432986      10.18144482
  H           29.74145980     -29.54084221      14.03974468
  H           26.40803097     -27.29970080      16.79590435
  C           26.43495548     -24.47188378      13.85524544
  C           27.76658339     -24.40083310      11.66067555
  C           28.85712593     -27.76965029      13.58497024
units = au
no_com
no_reorient
}

set {
  e_convergence 10
  d_convergence 10
  scf_type df
  mp2_type df
  cc_type df
  freeze_core true
}

energy('sapt0/aug-cc-pvdz')

--------------------------------------------------------------------------

  //              Dimer HF             //
    Molecular point group: c1
  Charge       = 0
  Multiplicity = 1
  Basis Set: AUG-CC-PVDZ
    Blend: AUG-CC-PVDZ
  Basis Set: (AUG-CC-PVDZ AUX)
    Blend: AUG-CC-PVDZ-JKFIT
  @DF-RHF Final Energy:  -449.68742171015538
    Total Energy =                       -449.6874217101553768
  //            Monomer A HF           //
    Molecular point group: c1
  Multiplicity = 1
  Basis Set: AUG-CC-PVDZ
    Blend: AUG-CC-PVDZ
  Basis Set: (AUG-CC-PVDZ AUX)
    Blend: AUG-CC-PVDZ-JKFIT
  @DF-RHF Final Energy:  -224.84369627825890
    Total Energy =                       -224.8436962782589035
  //            Monomer B HF           //
    Molecular point group: c1

    Geometry (in Bohr), charge = 0, multiplicity = 1:

       Center              X                  Y                   Z               Mass
    ------------   -----------------  -----------------  -----------------  -----------------
      Gh(N)          -4.293096210000    -3.068374310000     5.305162310000    14.003074004430
      Gh(N)          -2.158473710000    -2.926272960000     1.720374480000    14.003074004430
      Gh(H)          -0.025455870000    -6.359035750000     2.220464520000     1.007825032230
      Gh(H)          -2.685669680000    -6.532602410000     6.614459540000     1.007825032230
      Gh(H)          -4.743884230000    -0.006090060000     2.756159680000     1.007825032230
      Gh(H)          -1.410455400000    -2.247231470000     0.000000000000     1.007825032230
      Gh(C)          -1.437379910000    -5.075048480000     2.940658910000    12.000000000000
      Gh(C)          -2.769007820000    -5.146099160000     5.135228800000    12.000000000000
      Gh(C)          -3.859550360000    -1.777281980000     3.210934110000    12.000000000000
         N           29.290671780000   -26.478557950000    11.490742040000    14.003074004430
         N           27.156049280000   -26.620659310000    15.075529880000    14.003074004430
         H           25.023031440000   -23.187896520000    14.575439840000     1.007825032230
         H           27.683245250000   -23.014329860000    10.181444820000     1.007825032230
         H           29.741459800000   -29.540842210000    14.039744680000     1.007825032230
         H           26.408030970000   -27.299700800000    16.795904350000     1.007825032230
         C           26.434955480000   -24.471883780000    13.855245440000    12.000000000000
         C           27.766583390000   -24.400833100000    11.660675550000    12.000000000000
         C           28.857125930000   -27.769650290000    13.584970240000    12.000000000000

  Charge       = 0
  Multiplicity = 1
  Basis Set: AUG-CC-PVDZ
    Blend: AUG-CC-PVDZ
  Basis Set: (AUG-CC-PVDZ AUX)
    Blend: AUG-CC-PVDZ-JKFIT

    Orbital Energies [Eh]
    ---------------------

    Doubly Occupied:

       1A    -15.637071     2A    -15.551216     3A    -11.300916
       4A    -11.263160     5A    -11.245653     6A     -1.352867
       7A     -1.169098     8A     -1.012098     9A     -0.824390
      10A     -0.803731    11A     -0.760666    12A     -0.610096
      13A     -0.603958    14A     -0.601922    15A     -0.570942
      16A     -0.435483    17A     -0.400464    18A     -0.320685

  @DF-RHF Final Energy:  -224.84369627838205

   => Energetics <=

    Nuclear Repulsion Energy =            164.0866957760303819
    One-Electron Energy =                -628.9319558679227384
    Two-Electron Energy =                 240.0015638135102733
    Total Energy =                       -224.8436962783820547

  Dipole Moment: [D]
     X:    -2.0431      Y:    -0.4150      Z:     3.3867     Total:     3.9769

    SAPT Results
  --------------------------------------------------------------------------------------------------------
    Electrostatics                 -0.02912635 [mEh]      -0.01827706 [kcal/mol]      -0.07647123 [kJ/mol]
      Elst10,r                     -0.02912635 [mEh]      -0.01827706 [kcal/mol]      -0.07647123 [kJ/mol]

    Exchange                        0.00000000 [mEh]       0.00000000 [kcal/mol]       0.00000000 [kJ/mol]
      Exch10                        0.00000000 [mEh]       0.00000000 [kcal/mol]       0.00000000 [kJ/mol]
      Exch10(S^2)                   0.00000000 [mEh]       0.00000000 [kcal/mol]       0.00000000 [kJ/mol]

    Induction                      -0.00002716 [mEh]      -0.00001704 [kcal/mol]      -0.00007131 [kJ/mol]
      Ind20,r                      -0.00003308 [mEh]      -0.00002076 [kcal/mol]      -0.00008684 [kJ/mol]
      Exch-Ind20,r                  0.00000000 [mEh]       0.00000000 [kcal/mol]       0.00000000 [kJ/mol]
      delta HF,r (2)                0.00000592 [mEh]       0.00000371 [kcal/mol]       0.00001553 [kJ/mol]

    Dispersion                     -0.00038108 [mEh]      -0.00023913 [kcal/mol]      -0.00100052 [kJ/mol]
      Disp20                       -0.00038108 [mEh]      -0.00023913 [kcal/mol]      -0.00100052 [kJ/mol]
      Exch-Disp20                   0.00000000 [mEh]       0.00000000 [kcal/mol]       0.00000000 [kJ/mol]
      Disp20 (SS)                  -0.00019054 [mEh]      -0.00011957 [kcal/mol]      -0.00050026 [kJ/mol]
      Disp20 (OS)                  -0.00019054 [mEh]      -0.00011957 [kcal/mol]      -0.00050026 [kJ/mol]
      Exch-Disp20 (SS)              0.00000000 [mEh]       0.00000000 [kcal/mol]       0.00000000 [kJ/mol]
      Exch-Disp20 (OS)              0.00000000 [mEh]       0.00000000 [kcal/mol]       0.00000000 [kJ/mol]

  Total HF                         -0.02915351 [mEh]      -0.01829411 [kcal/mol]      -0.07654254 [kJ/mol]
  Total SAPT0                      -0.02953459 [mEh]      -0.01853324 [kcal/mol]      -0.07754306 [kJ/mol]

  Special recipe for scaled SAPT0 (see Manual):
    Electrostatics sSAPT0          -0.02912635 [mEh]      -0.01827706 [kcal/mol]      -0.07647123 [kJ/mol]
    Exchange sSAPT0                 0.00000000 [mEh]       0.00000000 [kcal/mol]       0.00000000 [kJ/mol]
    Induction sSAPT0               -0.00002716 [mEh]      -0.00001704 [kcal/mol]      -0.00007131 [kJ/mol]
    Dispersion sSAPT0              -0.00038108 [mEh]      -0.00023913 [kcal/mol]      -0.00100052 [kJ/mol]
  Total sSAPT0                     -0.02953459 [mEh]      -0.01853324 [kcal/mol]      -0.07754306 [kJ/mol]
  --------------------------------------------------------------------------------------------------------

*** Psi4 exiting successfully. Buy a developer a beer!
