                               Psi4 1.4rc3

  ==> Input File <==

--------------------------------------------------------------------------
# PSI4 file produced by CrystaLattE

# Generated from:               imidazole.xyz
# Psithon input for N-mer:      2mer-0+440
# Number of atoms per monomer:  [9, 9]
# Number of replicas:           2
# COM priority:                 1.131109208357e-05
# Minimum COM separations:      23.574
# Separation priority:          1.881707141918e-05
# Minimum monomer separations:  19.895
# Cutoff priority:              5.004984202207e-07
# Nuclear repulsion energy:     357.264190958811

memory 7 GB

molecule Dimer_0_440 {
  N           -4.29309621      -3.06837431       5.30516231
  N           -2.15847371      -2.92627296       1.72037448
  H           -0.02545587      -6.35903575       2.22046452
  H           -2.68566968      -6.53260241       6.61445954
  H           -4.74388423      -0.00609006       2.75615968
  H           -1.41045540      -2.24723147       0.00000000
  C           -1.43737991      -5.07504848       2.94065891
  C           -2.76900782      -5.14609916       5.13522880
  C           -3.85955036      -1.77728198       3.21093411
--
  N            0.18908973      39.49707232      -2.78690955
  N            2.32371223      39.35497096      -6.37169738
  H            4.45673008      42.78773376      -5.87160734
  H            1.79651626      42.96130041      -1.47761232
  H           -0.26169828      36.43478807      -5.33591219
  H            3.07173054      38.67592948      -8.09207186
  C            3.04480603      41.50374649      -5.15141295
  C            1.71317812      41.57479717      -2.95684306
  C            0.62263559      38.20597999      -4.88113775
units = au
no_com
no_reorient
}

set {
  e_convergence 10
  d_convergence 10
  scf_type df
  mp2_type df
  cc_type df
  freeze_core true
}

energy('sapt0/aug-cc-pvdz')

--------------------------------------------------------------------------

  //              Dimer HF             //
    Molecular point group: c1
  Charge       = 0
  Multiplicity = 1
  Basis Set: AUG-CC-PVDZ
    Blend: AUG-CC-PVDZ
  Basis Set: (AUG-CC-PVDZ AUX)
    Blend: AUG-CC-PVDZ-JKFIT
  @DF-RHF Final Energy:  -449.68736336031350
    Total Energy =                       -449.6873633603134977
  //            Monomer A HF           //
    Molecular point group: c1
  Multiplicity = 1
  Basis Set: AUG-CC-PVDZ
    Blend: AUG-CC-PVDZ
  Basis Set: (AUG-CC-PVDZ AUX)
    Blend: AUG-CC-PVDZ-JKFIT
  @DF-RHF Final Energy:  -224.84369627696469
    Total Energy =                       -224.8436962769646925
  //            Monomer B HF           //
    Molecular point group: c1

    Geometry (in Bohr), charge = 0, multiplicity = 1:

       Center              X                  Y                   Z               Mass
    ------------   -----------------  -----------------  -----------------  -----------------
      Gh(N)          -4.293096210000    -3.068374310000     5.305162310000    14.003074004430
      Gh(N)          -2.158473710000    -2.926272960000     1.720374480000    14.003074004430
      Gh(H)          -0.025455870000    -6.359035750000     2.220464520000     1.007825032230
      Gh(H)          -2.685669680000    -6.532602410000     6.614459540000     1.007825032230
      Gh(H)          -4.743884230000    -0.006090060000     2.756159680000     1.007825032230
      Gh(H)          -1.410455400000    -2.247231470000     0.000000000000     1.007825032230
      Gh(C)          -1.437379910000    -5.075048480000     2.940658910000    12.000000000000
      Gh(C)          -2.769007820000    -5.146099160000     5.135228800000    12.000000000000
      Gh(C)          -3.859550360000    -1.777281980000     3.210934110000    12.000000000000
         N            0.189089730000    39.497072320000    -2.786909550000    14.003074004430
         N            2.323712230000    39.354970960000    -6.371697380000    14.003074004430
         H            4.456730080000    42.787733760000    -5.871607340000     1.007825032230
         H            1.796516260000    42.961300410000    -1.477612320000     1.007825032230
         H           -0.261698280000    36.434788070000    -5.335912190000     1.007825032230
         H            3.071730540000    38.675929480000    -8.092071860000     1.007825032230
         C            3.044806030000    41.503746490000    -5.151412950000    12.000000000000
         C            1.713178120000    41.574797170000    -2.956843060000    12.000000000000
         C            0.622635590000    38.205979990000    -4.881137750000    12.000000000000

  Charge       = 0
  Multiplicity = 1
  Basis Set: AUG-CC-PVDZ
    Blend: AUG-CC-PVDZ
  Basis Set: (AUG-CC-PVDZ AUX)
    Blend: AUG-CC-PVDZ-JKFIT

    Orbital Energies [Eh]
    ---------------------

    Doubly Occupied:

       1A    -15.637071     2A    -15.551216     3A    -11.300916
       4A    -11.263160     5A    -11.245653     6A     -1.352867
       7A     -1.169098     8A     -1.012098     9A     -0.824390
      10A     -0.803731    11A     -0.760666    12A     -0.610096
      13A     -0.603958    14A     -0.601922    15A     -0.570942
      16A     -0.435483    17A     -0.400464    18A     -0.320685

  @DF-RHF Final Energy:  -224.84369627739693

   => Energetics <=

    Nuclear Repulsion Energy =            164.0866960153086325
    One-Electron Energy =                -628.9319563345521829
    Two-Electron Energy =                 240.0015640418466205
    Total Energy =                       -224.8436962773969299

  Dipole Moment: [D]
     X:     2.0431      Y:    -0.4150      Z:    -3.3867     Total:     3.9769

    SAPT Results
  --------------------------------------------------------------------------------------------------------
    Electrostatics                  0.02921358 [mEh]       0.01833180 [kcal/mol]       0.07670023 [kJ/mol]
      Elst10,r                      0.02921358 [mEh]       0.01833180 [kcal/mol]       0.07670023 [kJ/mol]

    Exchange                       -0.00000000 [mEh]      -0.00000000 [kcal/mol]      -0.00000000 [kJ/mol]
      Exch10                       -0.00000000 [mEh]      -0.00000000 [kcal/mol]      -0.00000000 [kJ/mol]
      Exch10(S^2)                  -0.00000000 [mEh]      -0.00000000 [kcal/mol]      -0.00000000 [kJ/mol]

    Induction                      -0.00001953 [mEh]      -0.00001225 [kcal/mol]      -0.00005127 [kJ/mol]
      Ind20,r                      -0.00002312 [mEh]      -0.00001451 [kcal/mol]      -0.00006071 [kJ/mol]
      Exch-Ind20,r                  0.00000000 [mEh]       0.00000000 [kcal/mol]       0.00000000 [kJ/mol]
      delta HF,r (2)                0.00000360 [mEh]       0.00000226 [kcal/mol]       0.00000944 [kJ/mol]

    Dispersion                     -0.00016570 [mEh]      -0.00010398 [kcal/mol]      -0.00043503 [kJ/mol]
      Disp20                       -0.00016570 [mEh]      -0.00010398 [kcal/mol]      -0.00043503 [kJ/mol]
      Exch-Disp20                   0.00000000 [mEh]       0.00000000 [kcal/mol]       0.00000000 [kJ/mol]
      Disp20 (SS)                  -0.00008285 [mEh]      -0.00005199 [kcal/mol]      -0.00021752 [kJ/mol]
      Disp20 (OS)                  -0.00008285 [mEh]      -0.00005199 [kcal/mol]      -0.00021752 [kJ/mol]
      Exch-Disp20 (SS)              0.00000000 [mEh]       0.00000000 [kcal/mol]       0.00000000 [kJ/mol]
      Exch-Disp20 (OS)              0.00000000 [mEh]       0.00000000 [kcal/mol]       0.00000000 [kJ/mol]

  Total HF                          0.02919405 [mEh]       0.01831954 [kcal/mol]       0.07664896 [kJ/mol]
  Total SAPT0                       0.02902835 [mEh]       0.01821557 [kcal/mol]       0.07621393 [kJ/mol]

  Special recipe for scaled SAPT0 (see Manual):
    Electrostatics sSAPT0           0.02921358 [mEh]       0.01833180 [kcal/mol]       0.07670023 [kJ/mol]
    Exchange sSAPT0                -0.00000000 [mEh]      -0.00000000 [kcal/mol]      -0.00000000 [kJ/mol]
    Induction sSAPT0               -0.00001953 [mEh]      -0.00001225 [kcal/mol]      -0.00005127 [kJ/mol]
    Dispersion sSAPT0              -0.00016570 [mEh]      -0.00010398 [kcal/mol]      -0.00043503 [kJ/mol]
  Total sSAPT0                      0.02902835 [mEh]       0.01821557 [kcal/mol]       0.07621393 [kJ/mol]
  --------------------------------------------------------------------------------------------------------

*** Psi4 exiting successfully. Buy a developer a beer!
