                               Psi4 1.4rc3

  ==> Input File <==

--------------------------------------------------------------------------
# PSI4 file produced by CrystaLattE

# Generated from:               imidazole.xyz
# Psithon input for N-mer:      2mer-0+74
# Number of atoms per monomer:  [9, 9]
# Number of replicas:           2
# COM priority:                 1.569502464533e-04
# Minimum COM separations:      9.810
# Separation priority:          4.537087497428e-04
# Minimum monomer separations:  6.887
# Cutoff priority:              3.486338401184e-05
# Nuclear repulsion energy:     398.1298110128138

memory 7 GB

molecule Dimer_0_74 {
  N           -4.29309621      -3.06837431       5.30516231
  N           -2.15847371      -2.92627296       1.72037448
  H           -0.02545587      -6.35903575       2.22046452
  H           -2.68566968      -6.53260241       6.61445954
  H           -4.74388423      -0.00609006       2.75615968
  H           -1.41045540      -2.24723147       0.00000000
  C           -1.43737991      -5.07504848       2.94065891
  C           -2.76900782      -5.14609916       5.13522880
  C           -3.85955036      -1.77728198       3.21093411
--
  N           -3.84807702       2.00667417      19.58281390
  N           -5.98269952       2.14877553      23.16760174
  H           -8.11571736      -1.28398727      22.66751170
  H           -5.45550355      -1.45755392      18.27351668
  H           -3.39728901       5.06895842      22.13181654
  H           -6.73071783       2.82781701      24.88797622
  C           -6.70379332      -0.00000000      21.94731730
  C           -5.37216541      -0.07105068      19.75274741
  C           -4.28162287       3.29776650      21.67704210
units = au
no_com
no_reorient
}

set {
  e_convergence 10
  d_convergence 10
  scf_type df
  mp2_type df
  cc_type df
  freeze_core true
}

energy('sapt0/aug-cc-pvdz')

--------------------------------------------------------------------------

  //              Dimer HF             //
    Molecular point group: c1
  Charge       = 0
  Multiplicity = 1
  Basis Set: AUG-CC-PVDZ
    Blend: AUG-CC-PVDZ
  Basis Set: (AUG-CC-PVDZ AUX)
    Blend: AUG-CC-PVDZ-JKFIT
  @DF-RHF Final Energy:  -449.68700928035196
    Total Energy =                       -449.6870092803519583
  //            Monomer A HF           //
    Molecular point group: c1
  Multiplicity = 1
  Basis Set: AUG-CC-PVDZ
    Blend: AUG-CC-PVDZ
  Basis Set: (AUG-CC-PVDZ AUX)
    Blend: AUG-CC-PVDZ-JKFIT
  @DF-RHF Final Energy:  -224.84370683858060
    Total Energy =                       -224.8437068385806015
  //            Monomer B HF           //
    Molecular point group: c1

    Geometry (in Bohr), charge = 0, multiplicity = 1:

       Center              X                  Y                   Z               Mass
    ------------   -----------------  -----------------  -----------------  -----------------
      Gh(N)          -4.293096210000    -3.068374310000     5.305162310000    14.003074004430
      Gh(N)          -2.158473710000    -2.926272960000     1.720374480000    14.003074004430
      Gh(H)          -0.025455870000    -6.359035750000     2.220464520000     1.007825032230
      Gh(H)          -2.685669680000    -6.532602410000     6.614459540000     1.007825032230
      Gh(H)          -4.743884230000    -0.006090060000     2.756159680000     1.007825032230
      Gh(H)          -1.410455400000    -2.247231470000     0.000000000000     1.007825032230
      Gh(C)          -1.437379910000    -5.075048480000     2.940658910000    12.000000000000
      Gh(C)          -2.769007820000    -5.146099160000     5.135228800000    12.000000000000
      Gh(C)          -3.859550360000    -1.777281980000     3.210934110000    12.000000000000
         N           -3.848077020000     2.006674170000    19.582813900000    14.003074004430
         N           -5.982699520000     2.148775530000    23.167601740000    14.003074004430
         H           -8.115717360000    -1.283987270000    22.667511700000     1.007825032230
         H           -5.455503550000    -1.457553920000    18.273516680000     1.007825032230
         H           -3.397289010000     5.068958420000    22.131816540000     1.007825032230
         H           -6.730717830000     2.827817010000    24.887976220000     1.007825032230
         C           -6.703793320000     0.000000000000    21.947317300000    12.000000000000
         C           -5.372165410000    -0.071050680000    19.752747410000    12.000000000000
         C           -4.281622870000     3.297766500000    21.677042100000    12.000000000000

  Charge       = 0
  Multiplicity = 1
  Basis Set: AUG-CC-PVDZ
    Blend: AUG-CC-PVDZ
  Basis Set: (AUG-CC-PVDZ AUX)
    Blend: AUG-CC-PVDZ-JKFIT

    Orbital Energies [Eh]
    ---------------------

    Doubly Occupied:

       1A    -15.637071     2A    -15.551216     3A    -11.300915
       4A    -11.263157     5A    -11.245643     6A     -1.352866
       7A     -1.169098     8A     -1.012097     9A     -0.824389
      10A     -0.803731    11A     -0.760666    12A     -0.610095
      13A     -0.603958    14A     -0.601922    15A     -0.570943
      16A     -0.435482    17A     -0.400464    18A     -0.320685

  @DF-RHF Final Energy:  -224.84370324458968

   => Energetics <=

    Nuclear Repulsion Energy =            164.0866958690804722
    One-Electron Energy =                -628.9319981247955411
    Two-Electron Energy =                 240.0015990111253927
    Total Energy =                       -224.8437032445896762

  Dipole Moment: [D]
     X:    -2.0430      Y:     0.4150      Z:     3.3868     Total:     3.9770

    SAPT Results
  --------------------------------------------------------------------------------------------------------
    Electrostatics                  0.41098544 [mEh]       0.25789726 [kcal/mol]       1.07904213 [kJ/mol]
      Elst10,r                      0.41098544 [mEh]       0.25789726 [kcal/mol]       1.07904213 [kJ/mol]

    Exchange                        0.00000026 [mEh]       0.00000016 [kcal/mol]       0.00000067 [kJ/mol]
      Exch10                        0.00000026 [mEh]       0.00000016 [kcal/mol]       0.00000067 [kJ/mol]
      Exch10(S^2)                   0.00000026 [mEh]       0.00000016 [kcal/mol]       0.00000067 [kJ/mol]

    Induction                      -0.01018288 [mEh]      -0.00638985 [kcal/mol]      -0.02673515 [kJ/mol]
      Ind20,r                      -0.01045691 [mEh]      -0.00656181 [kcal/mol]      -0.02745463 [kJ/mol]
      Exch-Ind20,r                  0.00000698 [mEh]       0.00000438 [kcal/mol]       0.00001832 [kJ/mol]
      delta HF,r (2)                0.00026706 [mEh]       0.00016758 [kcal/mol]       0.00070115 [kJ/mol]

    Dispersion                     -0.04234332 [mEh]      -0.02657083 [kcal/mol]      -0.11117237 [kJ/mol]
      Disp20                       -0.04234482 [mEh]      -0.02657178 [kcal/mol]      -0.11117632 [kJ/mol]
      Exch-Disp20                   0.00000150 [mEh]       0.00000094 [kcal/mol]       0.00000395 [kJ/mol]
      Disp20 (SS)                  -0.02117241 [mEh]      -0.01328589 [kcal/mol]      -0.05558816 [kJ/mol]
      Disp20 (OS)                  -0.02117241 [mEh]      -0.01328589 [kcal/mol]      -0.05558816 [kJ/mol]
      Exch-Disp20 (SS)              0.00000129 [mEh]       0.00000081 [kcal/mol]       0.00000339 [kJ/mol]
      Exch-Disp20 (OS)              0.00000021 [mEh]       0.00000013 [kcal/mol]       0.00000056 [kJ/mol]

  Total HF                          0.40080282 [mEh]       0.25150757 [kcal/mol]       1.05230765 [kJ/mol]
  Total SAPT0                       0.35845950 [mEh]       0.22493673 [kcal/mol]       0.94113528 [kJ/mol]

  Special recipe for scaled SAPT0 (see Manual):
    Electrostatics sSAPT0           0.41098544 [mEh]       0.25789726 [kcal/mol]       1.07904213 [kJ/mol]
    Exchange sSAPT0                 0.00000026 [mEh]       0.00000016 [kcal/mol]       0.00000067 [kJ/mol]
    Induction sSAPT0               -0.01018288 [mEh]      -0.00638985 [kcal/mol]      -0.02673515 [kJ/mol]
    Dispersion sSAPT0              -0.04234332 [mEh]      -0.02657083 [kcal/mol]      -0.11117237 [kJ/mol]
  Total sSAPT0                      0.35845950 [mEh]       0.22493673 [kcal/mol]       0.94113528 [kJ/mol]
  --------------------------------------------------------------------------------------------------------

*** Psi4 exiting successfully. Buy a developer a beer!
