                               Psi4 1.4rc3

  ==> Input File <==

--------------------------------------------------------------------------
# PSI4 file produced by CrystaLattE

# Generated from:               imidazole.xyz
# Psithon input for N-mer:      2mer-0+80
# Number of atoms per monomer:  [9, 9]
# Number of replicas:           1
# COM priority:                 5.480979686231e-05
# Minimum COM separations:      13.931
# Separation priority:          1.186293830321e-04
# Minimum monomer separations:  10.770
# Cutoff priority:              5.828941485651e-06
# Nuclear repulsion energy:     377.5789371536651

memory 7 GB

molecule Dimer_0_80 {
  N           -4.29309621      -3.06837431       5.30516231
  N           -2.15847371      -2.92627296       1.72037448
  H           -0.02545587      -6.35903575       2.22046452
  H           -2.68566968      -6.53260241       6.61445954
  H           -4.74388423      -0.00609006       2.75615968
  H           -1.41045540      -2.24723147       0.00000000
  C           -1.43737991      -5.07504848       2.94065891
  C           -2.76900782      -5.14609916       5.13522880
  C           -3.85955036      -1.77728198       3.21093411
--
  N           23.92676224      -6.17836402      -4.69340168
  N           21.79213974      -6.32046538      -1.10861384
  H           19.65912190      -2.88770259      -1.60870389
  H           22.31933571      -2.71413593      -6.00269891
  H           24.37755026      -9.24064828      -2.14439904
  H           21.04412143      -6.99950687       0.61176063
  C           21.07104594      -4.17168985      -2.32889828
  C           22.40267385      -4.10063917      -4.52346817
  C           23.49321639      -7.46945636      -2.59917348
units = au
no_com
no_reorient
}

set {
  e_convergence 10
  d_convergence 10
  scf_type df
  mp2_type df
  cc_type df
  freeze_core true
}

energy('sapt0/aug-cc-pvdz')

--------------------------------------------------------------------------

  //              Dimer HF             //
    Molecular point group: c1
  Charge       = 0
  Multiplicity = 1
  Basis Set: AUG-CC-PVDZ
    Blend: AUG-CC-PVDZ
  Basis Set: (AUG-CC-PVDZ AUX)
    Blend: AUG-CC-PVDZ-JKFIT
  @DF-RHF Final Energy:  -449.68737766459537
    Total Energy =                       -449.6873776645953740
  //            Monomer A HF           //
    Molecular point group: c1
  Multiplicity = 1
  Basis Set: AUG-CC-PVDZ
    Blend: AUG-CC-PVDZ
  Basis Set: (AUG-CC-PVDZ AUX)
    Blend: AUG-CC-PVDZ-JKFIT
  @DF-RHF Final Energy:  -224.84369635615650
    Total Energy =                       -224.8436963561564994
  //            Monomer B HF           //
    Molecular point group: c1

    Geometry (in Bohr), charge = 0, multiplicity = 1:

       Center              X                  Y                   Z               Mass
    ------------   -----------------  -----------------  -----------------  -----------------
      Gh(N)          -4.293096210000    -3.068374310000     5.305162310000    14.003074004430
      Gh(N)          -2.158473710000    -2.926272960000     1.720374480000    14.003074004430
      Gh(H)          -0.025455870000    -6.359035750000     2.220464520000     1.007825032230
      Gh(H)          -2.685669680000    -6.532602410000     6.614459540000     1.007825032230
      Gh(H)          -4.743884230000    -0.006090060000     2.756159680000     1.007825032230
      Gh(H)          -1.410455400000    -2.247231470000     0.000000000000     1.007825032230
      Gh(C)          -1.437379910000    -5.075048480000     2.940658910000    12.000000000000
      Gh(C)          -2.769007820000    -5.146099160000     5.135228800000    12.000000000000
      Gh(C)          -3.859550360000    -1.777281980000     3.210934110000    12.000000000000
         N           23.926762240000    -6.178364020000    -4.693401680000    14.003074004430
         N           21.792139740000    -6.320465380000    -1.108613840000    14.003074004430
         H           19.659121900000    -2.887702590000    -1.608703890000     1.007825032230
         H           22.319335710000    -2.714135930000    -6.002698910000     1.007825032230
         H           24.377550260000    -9.240648280000    -2.144399040000     1.007825032230
         H           21.044121430000    -6.999506870000     0.611760630000     1.007825032230
         C           21.071045940000    -4.171689850000    -2.328898280000    12.000000000000
         C           22.402673850000    -4.100639170000    -4.523468170000    12.000000000000
         C           23.493216390000    -7.469456360000    -2.599173480000    12.000000000000

  Charge       = 0
  Multiplicity = 1
  Basis Set: AUG-CC-PVDZ
    Blend: AUG-CC-PVDZ
  Basis Set: (AUG-CC-PVDZ AUX)
    Blend: AUG-CC-PVDZ-JKFIT

    Orbital Energies [Eh]
    ---------------------

    Doubly Occupied:

       1A    -15.637071     2A    -15.551216     3A    -11.300916
       4A    -11.263159     5A    -11.245653     6A     -1.352867
       7A     -1.169098     8A     -1.012098     9A     -0.824390
      10A     -0.803731    11A     -0.760666    12A     -0.610096
      13A     -0.603958    14A     -0.601922    15A     -0.570942
      16A     -0.435483    17A     -0.400464    18A     -0.320685

  @DF-RHF Final Energy:  -224.84369635693864

   => Energetics <=

    Nuclear Repulsion Energy =            164.0866957661908145
    One-Electron Energy =                -628.9319569024551129
    Two-Electron Energy =                 240.0015647793256619
    Total Energy =                       -224.8436963569386364

  Dipole Moment: [D]
     X:    -2.0431      Y:    -0.4150      Z:     3.3867     Total:     3.9769

    SAPT Results
  --------------------------------------------------------------------------------------------------------
    Electrostatics                  0.01579987 [mEh]       0.00991457 [kcal/mol]       0.04148254 [kJ/mol]
      Elst10,r                      0.01579987 [mEh]       0.00991457 [kcal/mol]       0.04148254 [kJ/mol]

    Exchange                        0.00000015 [mEh]       0.00000010 [kcal/mol]       0.00000040 [kJ/mol]
      Exch10                        0.00000015 [mEh]       0.00000010 [kcal/mol]       0.00000040 [kJ/mol]
      Exch10(S^2)                   0.00000015 [mEh]       0.00000010 [kcal/mol]       0.00000040 [kJ/mol]

    Induction                      -0.00075152 [mEh]      -0.00047158 [kcal/mol]      -0.00197311 [kJ/mol]
      Ind20,r                      -0.00071696 [mEh]      -0.00044990 [kcal/mol]      -0.00188238 [kJ/mol]
      Exch-Ind20,r                  0.00000025 [mEh]       0.00000015 [kcal/mol]       0.00000065 [kJ/mol]
      delta HF,r (2)               -0.00003480 [mEh]      -0.00002184 [kcal/mol]      -0.00009138 [kJ/mol]

    Dispersion                     -0.00418923 [mEh]      -0.00262878 [kcal/mol]      -0.01099882 [kJ/mol]
      Disp20                       -0.00418924 [mEh]      -0.00262879 [kcal/mol]      -0.01099885 [kJ/mol]
      Exch-Disp20                   0.00000001 [mEh]       0.00000001 [kcal/mol]       0.00000003 [kJ/mol]
      Disp20 (SS)                  -0.00209462 [mEh]      -0.00131439 [kcal/mol]      -0.00549943 [kJ/mol]
      Disp20 (OS)                  -0.00209462 [mEh]      -0.00131439 [kcal/mol]      -0.00549943 [kJ/mol]
      Exch-Disp20 (SS)              0.00000001 [mEh]       0.00000001 [kcal/mol]       0.00000002 [kJ/mol]
      Exch-Disp20 (OS)              0.00000000 [mEh]       0.00000000 [kcal/mol]       0.00000001 [kJ/mol]

  Total HF                          0.01504850 [mEh]       0.00944308 [kcal/mol]       0.03950983 [kJ/mol]
  Total SAPT0                       0.01085927 [mEh]       0.00681429 [kcal/mol]       0.02851101 [kJ/mol]

  Special recipe for scaled SAPT0 (see Manual):
    Electrostatics sSAPT0           0.01579987 [mEh]       0.00991457 [kcal/mol]       0.04148254 [kJ/mol]
    Exchange sSAPT0                 0.00000015 [mEh]       0.00000010 [kcal/mol]       0.00000040 [kJ/mol]
    Induction sSAPT0               -0.00075152 [mEh]      -0.00047158 [kcal/mol]      -0.00197311 [kJ/mol]
    Dispersion sSAPT0              -0.00418923 [mEh]      -0.00262878 [kcal/mol]      -0.01099882 [kJ/mol]
  Total sSAPT0                      0.01085927 [mEh]       0.00681429 [kcal/mol]       0.02851101 [kJ/mol]
  --------------------------------------------------------------------------------------------------------

*** Psi4 exiting successfully. Buy a developer a beer!
