                               Psi4 1.4rc3

  ==> Input File <==

--------------------------------------------------------------------------
# PSI4 file produced by CrystaLattE

# Generated from:               imidazole.xyz
# Psithon input for N-mer:      2mer-0+75
# Number of atoms per monomer:  [9, 9]
# Number of replicas:           2
# COM priority:                 6.518575148670e-05
# Minimum COM separations:      13.149
# Separation priority:          9.795142874702e-05
# Minimum monomer separations:  11.480
# Cutoff priority:              4.515242017317e-06
# Nuclear repulsion energy:     380.05798375537296

memory 7 GB

molecule Dimer_0_75 {
  N           -4.29309621      -3.06837431       5.30516231
  N           -2.15847371      -2.92627296       1.72037448
  H           -0.02545587      -6.35903575       2.22046452
  H           -2.68566968      -6.53260241       6.61445954
  H           -4.74388423      -0.00609006       2.75615968
  H           -1.41045540      -2.24723147       0.00000000
  C           -1.43737991      -5.07504848       2.94065891
  C           -2.76900782      -5.14609916       5.13522880
  C           -3.85955036      -1.77728198       3.21093411
--
  N           10.03518522      17.23181962       5.30516231
  N           12.16980772      17.37392098       1.72037448
  H           14.30282556      13.94115818       2.22046452
  H           11.64261175      13.76759152       6.61445954
  H            9.58439720      20.29410387       2.75615968
  H           12.91782602      18.05296246       0.00000000
  C           12.89090152      15.22514545       2.94065891
  C           11.55927361      15.15409477       5.13522880
  C           10.46873107      18.52291195       3.21093411
units = au
no_com
no_reorient
}

set {
  e_convergence 10
  d_convergence 10
  scf_type df
  mp2_type df
  cc_type df
  freeze_core true
}

energy('sapt0/aug-cc-pvdz')

--------------------------------------------------------------------------

  //              Dimer HF             //
    Molecular point group: c1
  Charge       = 0
  Multiplicity = 1
  Basis Set: AUG-CC-PVDZ
    Blend: AUG-CC-PVDZ
  Basis Set: (AUG-CC-PVDZ AUX)
    Blend: AUG-CC-PVDZ-JKFIT
  @DF-RHF Final Energy:  -449.68731857574937
    Total Energy =                       -449.6873185757493729
  //            Monomer A HF           //
    Molecular point group: c1
  Multiplicity = 1
  Basis Set: AUG-CC-PVDZ
    Blend: AUG-CC-PVDZ
  Basis Set: (AUG-CC-PVDZ AUX)
    Blend: AUG-CC-PVDZ-JKFIT
  @DF-RHF Final Energy:  -224.84369629899163
    Total Energy =                       -224.8436962989916310
  //            Monomer B HF           //
    Molecular point group: c1

    Geometry (in Bohr), charge = 0, multiplicity = 1:

       Center              X                  Y                   Z               Mass
    ------------   -----------------  -----------------  -----------------  -----------------
      Gh(N)          -4.293096210000    -3.068374310000     5.305162310000    14.003074004430
      Gh(N)          -2.158473710000    -2.926272960000     1.720374480000    14.003074004430
      Gh(H)          -0.025455870000    -6.359035750000     2.220464520000     1.007825032230
      Gh(H)          -2.685669680000    -6.532602410000     6.614459540000     1.007825032230
      Gh(H)          -4.743884230000    -0.006090060000     2.756159680000     1.007825032230
      Gh(H)          -1.410455400000    -2.247231470000     0.000000000000     1.007825032230
      Gh(C)          -1.437379910000    -5.075048480000     2.940658910000    12.000000000000
      Gh(C)          -2.769007820000    -5.146099160000     5.135228800000    12.000000000000
      Gh(C)          -3.859550360000    -1.777281980000     3.210934110000    12.000000000000
         N           10.035185220000    17.231819620000     5.305162310000    14.003074004430
         N           12.169807720000    17.373920980000     1.720374480000    14.003074004430
         H           14.302825560000    13.941158180000     2.220464520000     1.007825032230
         H           11.642611750000    13.767591520000     6.614459540000     1.007825032230
         H            9.584397200000    20.294103870000     2.756159680000     1.007825032230
         H           12.917826020000    18.052962460000     0.000000000000     1.007825032230
         C           12.890901520000    15.225145450000     2.940658910000    12.000000000000
         C           11.559273610000    15.154094770000     5.135228800000    12.000000000000
         C           10.468731070000    18.522911950000     3.210934110000    12.000000000000

  Charge       = 0
  Multiplicity = 1
  Basis Set: AUG-CC-PVDZ
    Blend: AUG-CC-PVDZ
  Basis Set: (AUG-CC-PVDZ AUX)
    Blend: AUG-CC-PVDZ-JKFIT

    Orbital Energies [Eh]
    ---------------------

    Doubly Occupied:

       1A    -15.637071     2A    -15.551216     3A    -11.300916
       4A    -11.263160     5A    -11.245653     6A     -1.352867
       7A     -1.169098     8A     -1.012098     9A     -0.824390
      10A     -0.803731    11A     -0.760666    12A     -0.610096
      13A     -0.603958    14A     -0.601922    15A     -0.570942
      16A     -0.435483    17A     -0.400464    18A     -0.320685

  @DF-RHF Final Energy:  -224.84369630352057

   => Energetics <=

    Nuclear Repulsion Energy =            164.0866959712147661
    One-Electron Energy =                -628.9319565339446854
    Two-Electron Energy =                 240.0015642592093172
    Total Energy =                       -224.8436963035205736

  Dipole Moment: [D]
     X:     2.0431      Y:     0.4150      Z:    -3.3867     Total:     3.9769

    SAPT Results
  --------------------------------------------------------------------------------------------------------
    Electrostatics                  0.07464995 [mEh]       0.04684355 [kcal/mol]       0.19599342 [kJ/mol]
      Elst10,r                      0.07464995 [mEh]       0.04684355 [kcal/mol]       0.19599342 [kJ/mol]

    Exchange                        0.00000002 [mEh]       0.00000001 [kcal/mol]       0.00000004 [kJ/mol]
      Exch10                        0.00000002 [mEh]       0.00000001 [kcal/mol]       0.00000004 [kJ/mol]
      Exch10(S^2)                   0.00000002 [mEh]       0.00000001 [kcal/mol]       0.00000004 [kJ/mol]

    Induction                      -0.00062321 [mEh]      -0.00039107 [kcal/mol]      -0.00163623 [kJ/mol]
      Ind20,r                      -0.00063954 [mEh]      -0.00040132 [kcal/mol]      -0.00167911 [kJ/mol]
      Exch-Ind20,r                  0.00000003 [mEh]       0.00000002 [kcal/mol]       0.00000009 [kJ/mol]
      delta HF,r (2)                0.00001630 [mEh]       0.00001023 [kcal/mol]       0.00004279 [kJ/mol]

    Dispersion                     -0.00478836 [mEh]      -0.00300474 [kcal/mol]      -0.01257184 [kJ/mol]
      Disp20                       -0.00478836 [mEh]      -0.00300474 [kcal/mol]      -0.01257185 [kJ/mol]
      Exch-Disp20                   0.00000000 [mEh]       0.00000000 [kcal/mol]       0.00000001 [kJ/mol]
      Disp20 (SS)                  -0.00239418 [mEh]      -0.00150237 [kcal/mol]      -0.00628592 [kJ/mol]
      Disp20 (OS)                  -0.00239418 [mEh]      -0.00150237 [kcal/mol]      -0.00628592 [kJ/mol]
      Exch-Disp20 (SS)              0.00000000 [mEh]       0.00000000 [kcal/mol]       0.00000001 [kJ/mol]
      Exch-Disp20 (OS)              0.00000000 [mEh]       0.00000000 [kcal/mol]       0.00000000 [kJ/mol]

  Total HF                          0.07402676 [mEh]       0.04645249 [kcal/mol]       0.19435724 [kJ/mol]
  Total SAPT0                       0.06923840 [mEh]       0.04344775 [kcal/mol]       0.18178540 [kJ/mol]

  Special recipe for scaled SAPT0 (see Manual):
    Electrostatics sSAPT0           0.07464995 [mEh]       0.04684355 [kcal/mol]       0.19599342 [kJ/mol]
    Exchange sSAPT0                 0.00000002 [mEh]       0.00000001 [kcal/mol]       0.00000004 [kJ/mol]
    Induction sSAPT0               -0.00062321 [mEh]      -0.00039107 [kcal/mol]      -0.00163623 [kJ/mol]
    Dispersion sSAPT0              -0.00478836 [mEh]      -0.00300474 [kcal/mol]      -0.01257184 [kJ/mol]
  Total sSAPT0                      0.06923840 [mEh]       0.04344775 [kcal/mol]       0.18178540 [kJ/mol]
  --------------------------------------------------------------------------------------------------------

*** Psi4 exiting successfully. Buy a developer a beer!
