                               Psi4 1.4rc3

  ==> Input File <==

--------------------------------------------------------------------------
# PSI4 file produced by CrystaLattE

# Generated from:               imidazole.xyz
# Psithon input for N-mer:      2mer-0+334
# Number of atoms per monomer:  [9, 9]
# Number of replicas:           2
# COM priority:                 1.988349998763e-05
# Minimum COM separations:      19.533
# Separation priority:          2.903120615695e-05
# Minimum monomer separations:  17.218
# Cutoff priority:              8.922504446723e-07
# Nuclear repulsion energy:     363.24039811386695

memory 7 GB

molecule Dimer_0_334 {
  N           -4.29309621      -3.06837431       5.30516231
  N           -2.15847371      -2.92627296       1.72037448
  H           -0.02545587      -6.35903575       2.22046452
  H           -2.68566968      -6.53260241       6.61445954
  H           -4.74388423      -0.00609006       2.75615968
  H           -1.41045540      -2.24723147       0.00000000
  C           -1.43737991      -5.07504848       2.94065891
  C           -2.76900782      -5.14609916       5.13522880
  C           -3.85955036      -1.77728198       3.21093411
--
  N           10.91690881      19.19687839      29.58137789
  N           13.05153131      19.05477703      25.99659006
  H           15.18454916      22.48753983      26.49668010
  H           12.52433534      22.66110648      30.89067512
  H           10.46612080      16.13459414      27.03237526
  H           13.79954962      18.37573555      24.27621558
  C           13.77262511      21.20355256      27.21687450
  C           12.44099720      21.27460324      29.41144439
  C           11.35045467      17.90578606      27.48714970
units = au
no_com
no_reorient
}

set {
  e_convergence 10
  d_convergence 10
  scf_type df
  mp2_type df
  cc_type df
  freeze_core true
}

energy('sapt0/aug-cc-pvdz')

--------------------------------------------------------------------------

  //              Dimer HF             //
    Molecular point group: c1
  Charge       = 0
  Multiplicity = 1
  Basis Set: AUG-CC-PVDZ
    Blend: AUG-CC-PVDZ
  Basis Set: (AUG-CC-PVDZ AUX)
    Blend: AUG-CC-PVDZ-JKFIT
  @DF-RHF Final Energy:  -449.68737238953946
    Total Energy =                       -449.6873723895395187
  //            Monomer A HF           //
    Molecular point group: c1
  Multiplicity = 1
  Basis Set: AUG-CC-PVDZ
    Blend: AUG-CC-PVDZ
  Basis Set: (AUG-CC-PVDZ AUX)
    Blend: AUG-CC-PVDZ-JKFIT
  @DF-RHF Final Energy:  -224.84369627786171
    Total Energy =                       -224.8436962778617101
  //            Monomer B HF           //
    Molecular point group: c1

    Geometry (in Bohr), charge = 0, multiplicity = 1:

       Center              X                  Y                   Z               Mass
    ------------   -----------------  -----------------  -----------------  -----------------
      Gh(N)          -4.293096210000    -3.068374310000     5.305162310000    14.003074004430
      Gh(N)          -2.158473710000    -2.926272960000     1.720374480000    14.003074004430
      Gh(H)          -0.025455870000    -6.359035750000     2.220464520000     1.007825032230
      Gh(H)          -2.685669680000    -6.532602410000     6.614459540000     1.007825032230
      Gh(H)          -4.743884230000    -0.006090060000     2.756159680000     1.007825032230
      Gh(H)          -1.410455400000    -2.247231470000     0.000000000000     1.007825032230
      Gh(C)          -1.437379910000    -5.075048480000     2.940658910000    12.000000000000
      Gh(C)          -2.769007820000    -5.146099160000     5.135228800000    12.000000000000
      Gh(C)          -3.859550360000    -1.777281980000     3.210934110000    12.000000000000
         N           10.916908810000    19.196878390000    29.581377890000    14.003074004430
         N           13.051531310000    19.054777030000    25.996590060000    14.003074004430
         H           15.184549160000    22.487539830000    26.496680100000     1.007825032230
         H           12.524335340000    22.661106480000    30.890675120000     1.007825032230
         H           10.466120800000    16.134594140000    27.032375260000     1.007825032230
         H           13.799549620000    18.375735550000    24.276215580000     1.007825032230
         C           13.772625110000    21.203552560000    27.216874500000    12.000000000000
         C           12.440997200000    21.274603240000    29.411444390000    12.000000000000
         C           11.350454670000    17.905786060000    27.487149700000    12.000000000000

  Charge       = 0
  Multiplicity = 1
  Basis Set: AUG-CC-PVDZ
    Blend: AUG-CC-PVDZ
  Basis Set: (AUG-CC-PVDZ AUX)
    Blend: AUG-CC-PVDZ-JKFIT

    Orbital Energies [Eh]
    ---------------------

    Doubly Occupied:

       1A    -15.637071     2A    -15.551216     3A    -11.300916
       4A    -11.263160     5A    -11.245653     6A     -1.352867
       7A     -1.169098     8A     -1.012098     9A     -0.824390
      10A     -0.803731    11A     -0.760666    12A     -0.610096
      13A     -0.603958    14A     -0.601922    15A     -0.570942
      16A     -0.435483    17A     -0.400464    18A     -0.320685

  @DF-RHF Final Energy:  -224.84369627783829

   => Energetics <=

    Nuclear Repulsion Energy =            164.0866960017735607
    One-Electron Energy =                -628.9319563125271770
    Two-Electron Energy =                 240.0015640329152973
    Total Energy =                       -224.8436962778382906

  Dipole Moment: [D]
     X:     2.0431      Y:    -0.4150      Z:    -3.3867     Total:     3.9769

    SAPT Results
  --------------------------------------------------------------------------------------------------------
    Electrostatics                  0.02023943 [mEh]       0.01270043 [kcal/mol]       0.05313861 [kJ/mol]
      Elst10,r                      0.02023943 [mEh]       0.01270043 [kcal/mol]       0.05313861 [kJ/mol]

    Exchange                        0.00000000 [mEh]       0.00000000 [kcal/mol]       0.00000000 [kJ/mol]
      Exch10                        0.00000000 [mEh]       0.00000000 [kcal/mol]       0.00000000 [kJ/mol]
      Exch10(S^2)                   0.00000000 [mEh]       0.00000000 [kcal/mol]       0.00000000 [kJ/mol]

    Induction                      -0.00007327 [mEh]      -0.00004597 [kcal/mol]      -0.00019236 [kJ/mol]
      Ind20,r                      -0.00007557 [mEh]      -0.00004742 [kcal/mol]      -0.00019840 [kJ/mol]
      Exch-Ind20,r                  0.00000000 [mEh]       0.00000000 [kcal/mol]       0.00000000 [kJ/mol]
      delta HF,r (2)                0.00000230 [mEh]       0.00000144 [kcal/mol]       0.00000604 [kJ/mol]

    Dispersion                     -0.00046581 [mEh]      -0.00029230 [kcal/mol]      -0.00122299 [kJ/mol]
      Disp20                       -0.00046581 [mEh]      -0.00029230 [kcal/mol]      -0.00122299 [kJ/mol]
      Exch-Disp20                   0.00000000 [mEh]       0.00000000 [kcal/mol]       0.00000000 [kJ/mol]
      Disp20 (SS)                  -0.00023291 [mEh]      -0.00014615 [kcal/mol]      -0.00061150 [kJ/mol]
      Disp20 (OS)                  -0.00023291 [mEh]      -0.00014615 [kcal/mol]      -0.00061150 [kJ/mol]
      Exch-Disp20 (SS)              0.00000000 [mEh]       0.00000000 [kcal/mol]       0.00000000 [kJ/mol]
      Exch-Disp20 (OS)              0.00000000 [mEh]       0.00000000 [kcal/mol]       0.00000000 [kJ/mol]

  Total HF                          0.02016616 [mEh]       0.01265446 [kcal/mol]       0.05294625 [kJ/mol]
  Total SAPT0                       0.01970035 [mEh]       0.01236215 [kcal/mol]       0.05172326 [kJ/mol]

  Special recipe for scaled SAPT0 (see Manual):
    Electrostatics sSAPT0           0.02023943 [mEh]       0.01270043 [kcal/mol]       0.05313861 [kJ/mol]
    Exchange sSAPT0                 0.00000000 [mEh]       0.00000000 [kcal/mol]       0.00000000 [kJ/mol]
    Induction sSAPT0               -0.00007327 [mEh]      -0.00004597 [kcal/mol]      -0.00019236 [kJ/mol]
    Dispersion sSAPT0              -0.00046581 [mEh]      -0.00029230 [kcal/mol]      -0.00122299 [kJ/mol]
  Total sSAPT0                      0.01970035 [mEh]       0.01236215 [kcal/mol]       0.05172326 [kJ/mol]
  --------------------------------------------------------------------------------------------------------

*** Psi4 exiting successfully. Buy a developer a beer!
