                               Psi4 1.4rc3

  ==> Input File <==

--------------------------------------------------------------------------
# PSI4 file produced by CrystaLattE

# Generated from:               imidazole.xyz
# Psithon input for N-mer:      2mer-0+106
# Number of atoms per monomer:  [9, 9]
# Number of replicas:           2
# COM priority:                 5.330284113156e-05
# Minimum COM separations:      14.061
# Separation priority:          1.285353709690e-04
# Minimum monomer separations:  10.486
# Cutoff priority:              6.486795504896e-06
# Nuclear repulsion energy:     376.9495728787632

memory 7 GB

molecule Dimer_0_106 {
  N           -4.29309621      -3.06837431       5.30516231
  N           -2.15847371      -2.92627296       1.72037448
  H           -0.02545587      -6.35903575       2.22046452
  H           -2.68566968      -6.53260241       6.61445954
  H           -4.74388423      -0.00609006       2.75615968
  H           -1.41045540      -2.24723147       0.00000000
  C           -1.43737991      -5.07504848       2.94065891
  C           -2.76900782      -5.14609916       5.13522880
  C           -3.85955036      -1.77728198       3.21093411
--
  N           -9.21198656      22.30686810       3.39867018
  N          -11.34660906      22.44896946       6.98345802
  H          -13.47962690      19.01620666       6.48336797
  H          -10.81941309      18.84264001       2.08937295
  H           -8.76119855      25.36915235       5.94767282
  H          -12.09462737      23.12801094       8.70383249
  C          -12.06770286      20.30019393       5.76317358
  C          -10.73607495      20.22914325       3.56860369
  C           -9.64553241      23.59796043       5.49289838
units = au
no_com
no_reorient
}

set {
  e_convergence 10
  d_convergence 10
  scf_type df
  mp2_type df
  cc_type df
  freeze_core true
}

energy('sapt0/aug-cc-pvdz')

--------------------------------------------------------------------------

  //              Dimer HF             //
    Molecular point group: c1
  Charge       = 0
  Multiplicity = 1
  Basis Set: AUG-CC-PVDZ
    Blend: AUG-CC-PVDZ
  Basis Set: (AUG-CC-PVDZ AUX)
    Blend: AUG-CC-PVDZ-JKFIT
  @DF-RHF Final Energy:  -449.68750920960275
    Total Energy =                       -449.6875092096028084
  //            Monomer A HF           //
    Molecular point group: c1
  Multiplicity = 1
  Basis Set: AUG-CC-PVDZ
    Blend: AUG-CC-PVDZ
  Basis Set: (AUG-CC-PVDZ AUX)
    Blend: AUG-CC-PVDZ-JKFIT
  @DF-RHF Final Energy:  -224.84369640052455
    Total Energy =                       -224.8436964005245500
  //            Monomer B HF           //
    Molecular point group: c1

    Geometry (in Bohr), charge = 0, multiplicity = 1:

       Center              X                  Y                   Z               Mass
    ------------   -----------------  -----------------  -----------------  -----------------
      Gh(N)          -4.293096210000    -3.068374310000     5.305162310000    14.003074004430
      Gh(N)          -2.158473710000    -2.926272960000     1.720374480000    14.003074004430
      Gh(H)          -0.025455870000    -6.359035750000     2.220464520000     1.007825032230
      Gh(H)          -2.685669680000    -6.532602410000     6.614459540000     1.007825032230
      Gh(H)          -4.743884230000    -0.006090060000     2.756159680000     1.007825032230
      Gh(H)          -1.410455400000    -2.247231470000     0.000000000000     1.007825032230
      Gh(C)          -1.437379910000    -5.075048480000     2.940658910000    12.000000000000
      Gh(C)          -2.769007820000    -5.146099160000     5.135228800000    12.000000000000
      Gh(C)          -3.859550360000    -1.777281980000     3.210934110000    12.000000000000
         N           -9.211986560000    22.306868100000     3.398670180000    14.003074004430
         N          -11.346609060000    22.448969460000     6.983458020000    14.003074004430
         H          -13.479626900000    19.016206660000     6.483367970000     1.007825032230
         H          -10.819413090000    18.842640010000     2.089372950000     1.007825032230
         H           -8.761198550000    25.369152350000     5.947672820000     1.007825032230
         H          -12.094627370000    23.128010940000     8.703832490000     1.007825032230
         C          -12.067702860000    20.300193930000     5.763173580000    12.000000000000
         C          -10.736074950000    20.229143250000     3.568603690000    12.000000000000
         C           -9.645532410000    23.597960430000     5.492898380000    12.000000000000

  Charge       = 0
  Multiplicity = 1
  Basis Set: AUG-CC-PVDZ
    Blend: AUG-CC-PVDZ
  Basis Set: (AUG-CC-PVDZ AUX)
    Blend: AUG-CC-PVDZ-JKFIT

    Orbital Energies [Eh]
    ---------------------

    Doubly Occupied:

       1A    -15.637071     2A    -15.551216     3A    -11.300916
       4A    -11.263159     5A    -11.245653     6A     -1.352867
       7A     -1.169098     8A     -1.012098     9A     -0.824390
      10A     -0.803731    11A     -0.760666    12A     -0.610096
      13A     -0.603958    14A     -0.601922    15A     -0.570942
      16A     -0.435483    17A     -0.400464    18A     -0.320685

  @DF-RHF Final Energy:  -224.84369639390894

   => Energetics <=

    Nuclear Repulsion Energy =            164.0866958834631077
    One-Electron Energy =                -628.9319574402588842
    Two-Electron Energy =                 240.0015651628868341
    Total Energy =                       -224.8436963939089424

  Dipole Moment: [D]
     X:    -2.0431      Y:     0.4150      Z:     3.3867     Total:     3.9769

    SAPT Results
  --------------------------------------------------------------------------------------------------------
    Electrostatics                 -0.11595002 [mEh]      -0.07275974 [kcal/mol]      -0.30442675 [kJ/mol]
      Elst10,r                     -0.11595002 [mEh]      -0.07275974 [kcal/mol]      -0.30442675 [kJ/mol]

    Exchange                        0.00000010 [mEh]       0.00000006 [kcal/mol]       0.00000025 [kJ/mol]
      Exch10                        0.00000010 [mEh]       0.00000006 [kcal/mol]       0.00000025 [kJ/mol]
      Exch10(S^2)                   0.00000010 [mEh]       0.00000006 [kcal/mol]       0.00000025 [kJ/mol]

    Induction                      -0.00046524 [mEh]      -0.00029194 [kcal/mol]      -0.00122149 [kJ/mol]
      Ind20,r                      -0.00045390 [mEh]      -0.00028483 [kcal/mol]      -0.00119171 [kJ/mol]
      Exch-Ind20,r                  0.00000020 [mEh]       0.00000013 [kcal/mol]       0.00000052 [kJ/mol]
      delta HF,r (2)               -0.00001154 [mEh]      -0.00000724 [kcal/mol]      -0.00003030 [kJ/mol]

    Dispersion                     -0.00404697 [mEh]      -0.00253951 [kcal/mol]      -0.01062531 [kJ/mol]
      Disp20                       -0.00404698 [mEh]      -0.00253952 [kcal/mol]      -0.01062535 [kJ/mol]
      Exch-Disp20                   0.00000002 [mEh]       0.00000001 [kcal/mol]       0.00000004 [kJ/mol]
      Disp20 (SS)                  -0.00202349 [mEh]      -0.00126976 [kcal/mol]      -0.00531267 [kJ/mol]
      Disp20 (OS)                  -0.00202349 [mEh]      -0.00126976 [kcal/mol]      -0.00531267 [kJ/mol]
      Exch-Disp20 (SS)              0.00000001 [mEh]       0.00000001 [kcal/mol]       0.00000003 [kJ/mol]
      Exch-Disp20 (OS)              0.00000000 [mEh]       0.00000000 [kcal/mol]       0.00000001 [kJ/mol]

  Total HF                         -0.11641517 [mEh]      -0.07305162 [kcal/mol]      -0.30564798 [kJ/mol]
  Total SAPT0                      -0.12046213 [mEh]      -0.07559113 [kcal/mol]      -0.31627329 [kJ/mol]

  Special recipe for scaled SAPT0 (see Manual):
    Electrostatics sSAPT0          -0.11595002 [mEh]      -0.07275974 [kcal/mol]      -0.30442675 [kJ/mol]
    Exchange sSAPT0                 0.00000010 [mEh]       0.00000006 [kcal/mol]       0.00000025 [kJ/mol]
    Induction sSAPT0               -0.00046524 [mEh]      -0.00029194 [kcal/mol]      -0.00122149 [kJ/mol]
    Dispersion sSAPT0              -0.00404697 [mEh]      -0.00253951 [kcal/mol]      -0.01062531 [kJ/mol]
  Total sSAPT0                     -0.12046213 [mEh]      -0.07559113 [kcal/mol]      -0.31627329 [kJ/mol]
  --------------------------------------------------------------------------------------------------------

*** Psi4 exiting successfully. Buy a developer a beer!
