                               Psi4 1.4rc3

  ==> Input File <==

--------------------------------------------------------------------------
# PSI4 file produced by CrystaLattE

# Generated from:               imidazole.xyz
# Psithon input for N-mer:      2mer-0+315
# Number of atoms per monomer:  [9, 9]
# Number of replicas:           2
# COM priority:                 1.425011055511e-05
# Minimum COM separations:      21.827
# Separation priority:          2.542628928977e-05
# Minimum monomer separations:  17.996
# Cutoff priority:              7.476711881041e-07
# Nuclear repulsion energy:     359.6882067562873

memory 7 GB

molecule Dimer_0_315 {
  N           -4.29309621      -3.06837431       5.30516231
  N           -2.15847371      -2.92627296       1.72037448
  H           -0.02545587      -6.35903575       2.22046452
  H           -2.68566968      -6.53260241       6.61445954
  H           -4.74388423      -0.00609006       2.75615968
  H           -1.41045540      -2.24723147       0.00000000
  C           -1.43737991      -5.07504848       2.94065891
  C           -2.76900782      -5.14609916       5.13522880
  C           -3.85955036      -1.77728198       3.21093411
--
  N            8.71675722      22.30686810     -28.96961726
  N            6.58213472      22.44896946     -25.38482943
  H            4.44911687      19.01620666     -25.88491947
  H            7.10933069      18.84264001     -30.27891449
  H            9.16754523      25.36915235     -26.42061463
  H            5.83411641      23.12801094     -23.66445495
  C            5.86104092      20.30019393     -26.60511386
  C            7.19266883      20.22914325     -28.79968375
  C            8.28321136      23.59796043     -26.87538906
units = au
no_com
no_reorient
}

set {
  e_convergence 10
  d_convergence 10
  scf_type df
  mp2_type df
  cc_type df
  freeze_core true
}

energy('sapt0/aug-cc-pvdz')

--------------------------------------------------------------------------

  //              Dimer HF             //
    Molecular point group: c1
  Charge       = 0
  Multiplicity = 1
  Basis Set: AUG-CC-PVDZ
    Blend: AUG-CC-PVDZ
  Basis Set: (AUG-CC-PVDZ AUX)
    Blend: AUG-CC-PVDZ-JKFIT
  @DF-RHF Final Energy:  -449.68736332269668
    Total Energy =                       -449.6873633226966831
  //            Monomer A HF           //
    Molecular point group: c1
  Multiplicity = 1
  Basis Set: AUG-CC-PVDZ
    Blend: AUG-CC-PVDZ
  Basis Set: (AUG-CC-PVDZ AUX)
    Blend: AUG-CC-PVDZ-JKFIT
  @DF-RHF Final Energy:  -224.84369627674246
    Total Energy =                       -224.8436962767424632
  //            Monomer B HF           //
    Molecular point group: c1

    Geometry (in Bohr), charge = 0, multiplicity = 1:

       Center              X                  Y                   Z               Mass
    ------------   -----------------  -----------------  -----------------  -----------------
      Gh(N)          -4.293096210000    -3.068374310000     5.305162310000    14.003074004430
      Gh(N)          -2.158473710000    -2.926272960000     1.720374480000    14.003074004430
      Gh(H)          -0.025455870000    -6.359035750000     2.220464520000     1.007825032230
      Gh(H)          -2.685669680000    -6.532602410000     6.614459540000     1.007825032230
      Gh(H)          -4.743884230000    -0.006090060000     2.756159680000     1.007825032230
      Gh(H)          -1.410455400000    -2.247231470000     0.000000000000     1.007825032230
      Gh(C)          -1.437379910000    -5.075048480000     2.940658910000    12.000000000000
      Gh(C)          -2.769007820000    -5.146099160000     5.135228800000    12.000000000000
      Gh(C)          -3.859550360000    -1.777281980000     3.210934110000    12.000000000000
         N            8.716757220000    22.306868100000   -28.969617260000    14.003074004430
         N            6.582134720000    22.448969460000   -25.384829430000    14.003074004430
         H            4.449116870000    19.016206660000   -25.884919470000     1.007825032230
         H            7.109330690000    18.842640010000   -30.278914490000     1.007825032230
         H            9.167545230000    25.369152350000   -26.420614630000     1.007825032230
         H            5.834116410000    23.128010940000   -23.664454950000     1.007825032230
         C            5.861040920000    20.300193930000   -26.605113860000    12.000000000000
         C            7.192668830000    20.229143250000   -28.799683750000    12.000000000000
         C            8.283211360000    23.597960430000   -26.875389060000    12.000000000000

  Charge       = 0
  Multiplicity = 1
  Basis Set: AUG-CC-PVDZ
    Blend: AUG-CC-PVDZ
  Basis Set: (AUG-CC-PVDZ AUX)
    Blend: AUG-CC-PVDZ-JKFIT

    Orbital Energies [Eh]
    ---------------------

    Doubly Occupied:

       1A    -15.637071     2A    -15.551216     3A    -11.300916
       4A    -11.263160     5A    -11.245653     6A     -1.352867
       7A     -1.169098     8A     -1.012098     9A     -0.824390
      10A     -0.803731    11A     -0.760666    12A     -0.610096
      13A     -0.603958    14A     -0.601922    15A     -0.570942
      16A     -0.435483    17A     -0.400464    18A     -0.320685

  @DF-RHF Final Energy:  -224.84369627770030

   => Energetics <=

    Nuclear Repulsion Energy =            164.0866960207704039
    One-Electron Energy =                -628.9319563474070947
    Two-Electron Energy =                 240.0015640489363591
    Total Energy =                       -224.8436962777003032

  Dipole Moment: [D]
     X:    -2.0431      Y:     0.4150      Z:     3.3867     Total:     3.9769

    SAPT Results
  --------------------------------------------------------------------------------------------------------
    Electrostatics                  0.02931318 [mEh]       0.01839430 [kcal/mol]       0.07696174 [kJ/mol]
      Elst10,r                      0.02931318 [mEh]       0.01839430 [kcal/mol]       0.07696174 [kJ/mol]

    Exchange                        0.00000000 [mEh]       0.00000000 [kcal/mol]       0.00000000 [kJ/mol]
      Exch10                        0.00000000 [mEh]       0.00000000 [kcal/mol]       0.00000000 [kJ/mol]
      Exch10(S^2)                   0.00000000 [mEh]       0.00000000 [kcal/mol]       0.00000000 [kJ/mol]

    Induction                      -0.00008143 [mEh]      -0.00005110 [kcal/mol]      -0.00021380 [kJ/mol]
      Ind20,r                      -0.00007750 [mEh]      -0.00004863 [kcal/mol]      -0.00020348 [kJ/mol]
      Exch-Ind20,r                  0.00000000 [mEh]       0.00000000 [kcal/mol]       0.00000000 [kJ/mol]
      delta HF,r (2)               -0.00000393 [mEh]      -0.00000246 [kcal/mol]      -0.00001031 [kJ/mol]

    Dispersion                     -0.00028085 [mEh]      -0.00017624 [kcal/mol]      -0.00073738 [kJ/mol]
      Disp20                       -0.00028085 [mEh]      -0.00017624 [kcal/mol]      -0.00073738 [kJ/mol]
      Exch-Disp20                   0.00000000 [mEh]       0.00000000 [kcal/mol]       0.00000000 [kJ/mol]
      Disp20 (SS)                  -0.00014043 [mEh]      -0.00008812 [kcal/mol]      -0.00036869 [kJ/mol]
      Disp20 (OS)                  -0.00014043 [mEh]      -0.00008812 [kcal/mol]      -0.00036869 [kJ/mol]
      Exch-Disp20 (SS)              0.00000000 [mEh]       0.00000000 [kcal/mol]       0.00000000 [kJ/mol]
      Exch-Disp20 (OS)              0.00000000 [mEh]       0.00000000 [kcal/mol]       0.00000000 [kJ/mol]

  Total HF                          0.02923175 [mEh]       0.01834320 [kcal/mol]       0.07674794 [kJ/mol]
  Total SAPT0                       0.02895089 [mEh]       0.01816696 [kcal/mol]       0.07601056 [kJ/mol]

  Special recipe for scaled SAPT0 (see Manual):
    Electrostatics sSAPT0           0.02931318 [mEh]       0.01839430 [kcal/mol]       0.07696174 [kJ/mol]
    Exchange sSAPT0                 0.00000000 [mEh]       0.00000000 [kcal/mol]       0.00000000 [kJ/mol]
    Induction sSAPT0               -0.00008143 [mEh]      -0.00005110 [kcal/mol]      -0.00021380 [kJ/mol]
    Dispersion sSAPT0              -0.00028085 [mEh]      -0.00017624 [kcal/mol]      -0.00073738 [kJ/mol]
  Total sSAPT0                      0.02895089 [mEh]       0.01816696 [kcal/mol]       0.07601056 [kJ/mol]
  --------------------------------------------------------------------------------------------------------

*** Psi4 exiting successfully. Buy a developer a beer!
