                               Psi4 1.4rc3

  ==> Input File <==

--------------------------------------------------------------------------
# PSI4 file produced by CrystaLattE

# Generated from:               imidazole.xyz
# Psithon input for N-mer:      2mer-0+60
# Number of atoms per monomer:  [9, 9]
# Number of replicas:           2
# COM priority:                 9.790120345691e-05
# Minimum COM separations:      11.482
# Separation priority:          2.378110619646e-04
# Minimum monomer separations:  8.541
# Cutoff priority:              1.473361791150e-05
# Nuclear repulsion energy:     388.01105521838474

memory 7 GB

molecule Dimer_0_60 {
  N           -4.29309621      -3.06837431       5.30516231
  N           -2.15847371      -2.92627296       1.72037448
  H           -0.02545587      -6.35903575       2.22046452
  H           -2.68566968      -6.53260241       6.61445954
  H           -4.74388423      -0.00609006       2.75615968
  H           -1.41045540      -2.24723147       0.00000000
  C           -1.43737991      -5.07504848       2.94065891
  C           -2.76900782      -5.14609916       5.13522880
  C           -3.85955036      -1.77728198       3.21093411
--
  N           14.51737116     -11.25341251      -2.78690955
  N           16.65199366     -11.39551386      -6.37169738
  H           18.78501151      -7.96275107      -5.87160734
  H           16.12479769      -7.78918441      -1.47761232
  H           14.06658315     -14.31569676      -5.33591219
  H           17.40001197     -12.07455535      -8.09207186
  C           17.37308746      -9.24673834      -5.15141295
  C           16.04145955      -9.17568766      -2.95684306
  C           14.95091701     -12.54450484      -4.88113775
units = au
no_com
no_reorient
}

set {
  e_convergence 10
  d_convergence 10
  scf_type df
  mp2_type df
  cc_type df
  freeze_core true
}

energy('sapt0/aug-cc-pvdz')

--------------------------------------------------------------------------

  //              Dimer HF             //
    Molecular point group: c1
  Charge       = 0
  Multiplicity = 1
  Basis Set: AUG-CC-PVDZ
    Blend: AUG-CC-PVDZ
  Basis Set: (AUG-CC-PVDZ AUX)
    Blend: AUG-CC-PVDZ-JKFIT
  @DF-RHF Final Energy:  -449.68760255014524
    Total Energy =                       -449.6876025501452432
  //            Monomer A HF           //
    Molecular point group: c1
  Multiplicity = 1
  Basis Set: AUG-CC-PVDZ
    Blend: AUG-CC-PVDZ
  Basis Set: (AUG-CC-PVDZ AUX)
    Blend: AUG-CC-PVDZ-JKFIT
  @DF-RHF Final Energy:  -224.84369777178122
    Total Energy =                       -224.8436977717812226
  //            Monomer B HF           //
    Molecular point group: c1

    Geometry (in Bohr), charge = 0, multiplicity = 1:

       Center              X                  Y                   Z               Mass
    ------------   -----------------  -----------------  -----------------  -----------------
      Gh(N)          -4.293096210000    -3.068374310000     5.305162310000    14.003074004430
      Gh(N)          -2.158473710000    -2.926272960000     1.720374480000    14.003074004430
      Gh(H)          -0.025455870000    -6.359035750000     2.220464520000     1.007825032230
      Gh(H)          -2.685669680000    -6.532602410000     6.614459540000     1.007825032230
      Gh(H)          -4.743884230000    -0.006090060000     2.756159680000     1.007825032230
      Gh(H)          -1.410455400000    -2.247231470000     0.000000000000     1.007825032230
      Gh(C)          -1.437379910000    -5.075048480000     2.940658910000    12.000000000000
      Gh(C)          -2.769007820000    -5.146099160000     5.135228800000    12.000000000000
      Gh(C)          -3.859550360000    -1.777281980000     3.210934110000    12.000000000000
         N           14.517371160000   -11.253412510000    -2.786909550000    14.003074004430
         N           16.651993660000   -11.395513860000    -6.371697380000    14.003074004430
         H           18.785011510000    -7.962751070000    -5.871607340000     1.007825032230
         H           16.124797690000    -7.789184410000    -1.477612320000     1.007825032230
         H           14.066583150000   -14.315696760000    -5.335912190000     1.007825032230
         H           17.400011970000   -12.074555350000    -8.092071860000     1.007825032230
         C           17.373087460000    -9.246738340000    -5.151412950000    12.000000000000
         C           16.041459550000    -9.175687660000    -2.956843060000    12.000000000000
         C           14.950917010000   -12.544504840000    -4.881137750000    12.000000000000

  Charge       = 0
  Multiplicity = 1
  Basis Set: AUG-CC-PVDZ
    Blend: AUG-CC-PVDZ
  Basis Set: (AUG-CC-PVDZ AUX)
    Blend: AUG-CC-PVDZ-JKFIT

    Orbital Energies [Eh]
    ---------------------

    Doubly Occupied:

       1A    -15.637071     2A    -15.551218     3A    -11.300916
       4A    -11.263159     5A    -11.245652     6A     -1.352867
       7A     -1.169099     8A     -1.012098     9A     -0.824390
      10A     -0.803731    11A     -0.760666    12A     -0.610096
      13A     -0.603958    14A     -0.601922    15A     -0.570942
      16A     -0.435484    17A     -0.400465    18A     -0.320685

  @DF-RHF Final Energy:  -224.84369938825728

   => Energetics <=

    Nuclear Repulsion Energy =            164.0866959830293865
    One-Electron Energy =                -628.9319511792652975
    Two-Electron Energy =                 240.0015558079786615
    Total Energy =                       -224.8436993882572779

  Dipole Moment: [D]
     X:     2.0430      Y:    -0.4151      Z:    -3.3866     Total:     3.9768

    SAPT Results
  --------------------------------------------------------------------------------------------------------
    Electrostatics                 -0.20197702 [mEh]      -0.12674249 [kcal/mol]      -0.53029058 [kJ/mol]
      Elst10,r                     -0.20197702 [mEh]      -0.12674249 [kcal/mol]      -0.53029058 [kJ/mol]

    Exchange                        0.00000240 [mEh]       0.00000151 [kcal/mol]       0.00000631 [kJ/mol]
      Exch10                        0.00000240 [mEh]       0.00000151 [kcal/mol]       0.00000631 [kJ/mol]
      Exch10(S^2)                   0.00000240 [mEh]       0.00000151 [kcal/mol]       0.00000631 [kJ/mol]

    Induction                      -0.00341549 [mEh]      -0.00214325 [kcal/mol]      -0.00896737 [kJ/mol]
      Ind20,r                      -0.00344206 [mEh]      -0.00215992 [kcal/mol]      -0.00903712 [kJ/mol]
      Exch-Ind20,r                  0.00000528 [mEh]       0.00000331 [kcal/mol]       0.00001386 [kJ/mol]
      delta HF,r (2)                0.00002128 [mEh]       0.00001336 [kcal/mol]       0.00005588 [kJ/mol]

    Dispersion                     -0.01453862 [mEh]      -0.00912312 [kcal/mol]      -0.03817114 [kJ/mol]
      Disp20                       -0.01453897 [mEh]      -0.00912334 [kcal/mol]      -0.03817205 [kJ/mol]
      Exch-Disp20                   0.00000035 [mEh]       0.00000022 [kcal/mol]       0.00000091 [kJ/mol]
      Disp20 (SS)                  -0.00726948 [mEh]      -0.00456167 [kcal/mol]      -0.01908603 [kJ/mol]
      Disp20 (OS)                  -0.00726948 [mEh]      -0.00456167 [kcal/mol]      -0.01908603 [kJ/mol]
      Exch-Disp20 (SS)              0.00000028 [mEh]       0.00000018 [kcal/mol]       0.00000074 [kJ/mol]
      Exch-Disp20 (OS)              0.00000007 [mEh]       0.00000004 [kcal/mol]       0.00000017 [kJ/mol]

  Total HF                         -0.20539011 [mEh]      -0.12888424 [kcal/mol]      -0.53925165 [kJ/mol]
  Total SAPT0                      -0.21992873 [mEh]      -0.13800736 [kcal/mol]      -0.57742279 [kJ/mol]

  Special recipe for scaled SAPT0 (see Manual):
    Electrostatics sSAPT0          -0.20197702 [mEh]      -0.12674249 [kcal/mol]      -0.53029058 [kJ/mol]
    Exchange sSAPT0                 0.00000240 [mEh]       0.00000151 [kcal/mol]       0.00000631 [kJ/mol]
    Induction sSAPT0               -0.00341549 [mEh]      -0.00214325 [kcal/mol]      -0.00896737 [kJ/mol]
    Dispersion sSAPT0              -0.01453862 [mEh]      -0.00912312 [kcal/mol]      -0.03817114 [kJ/mol]
  Total sSAPT0                     -0.21992873 [mEh]      -0.13800736 [kcal/mol]      -0.57742279 [kJ/mol]
  --------------------------------------------------------------------------------------------------------

*** Psi4 exiting successfully. Buy a developer a beer!
