                               Psi4 1.4rc3

  ==> Input File <==

--------------------------------------------------------------------------
# PSI4 file produced by CrystaLattE

# Generated from:               imidazole.xyz
# Psithon input for N-mer:      2mer-0+223
# Number of atoms per monomer:  [9, 9]
# Number of replicas:           2
# COM priority:                 2.184149873702e-05
# Minimum COM separations:      18.931
# Separation priority:          4.009531836913e-05
# Minimum monomer separations:  15.461
# Cutoff priority:              1.372328939159e-06
# Nuclear repulsion energy:     364.38622746271324

memory 7 GB

molecule Dimer_0_223 {
  N           -4.29309621      -3.06837431       5.30516231
  N           -2.15847371      -2.92627296       1.72037448
  H           -0.02545587      -6.35903575       2.22046452
  H           -2.68566968      -6.53260241       6.61445954
  H           -4.74388423      -0.00609006       2.75615968
  H           -1.41045540      -2.24723147       0.00000000
  C           -1.43737991      -5.07504848       2.94065891
  C           -2.76900782      -5.14609916       5.13522880
  C           -3.85955036      -1.77728198       3.21093411
--
  N            5.55299927      29.34697536      13.39723417
  N            7.68762177      29.20487400       9.81244634
  H            9.82063962      32.63763679      10.31253638
  H            7.16042580      32.81120345      14.70653140
  H            5.10221126      26.28469110      10.84823154
  H            8.43564008      28.52583251       8.09207186
  C            8.40871557      31.35364953      11.03273078
  C            7.07708766      31.42470020      13.22730066
  C            5.98654513      28.05588302      11.30300598
units = au
no_com
no_reorient
}

set {
  e_convergence 10
  d_convergence 10
  scf_type df
  mp2_type df
  cc_type df
  freeze_core true
}

energy('sapt0/aug-cc-pvdz')

--------------------------------------------------------------------------

  //              Dimer HF             //
    Molecular point group: c1
  Charge       = 0
  Multiplicity = 1
  Basis Set: AUG-CC-PVDZ
    Blend: AUG-CC-PVDZ
  Basis Set: (AUG-CC-PVDZ AUX)
    Blend: AUG-CC-PVDZ-JKFIT
  @DF-RHF Final Energy:  -449.68733027596215
    Total Energy =                       -449.6873302759621538
  //            Monomer A HF           //
    Molecular point group: c1
  Multiplicity = 1
  Basis Set: AUG-CC-PVDZ
    Blend: AUG-CC-PVDZ
  Basis Set: (AUG-CC-PVDZ AUX)
    Blend: AUG-CC-PVDZ-JKFIT
  @DF-RHF Final Energy:  -224.84369627795260
    Total Energy =                       -224.8436962779526027
  //            Monomer B HF           //
    Molecular point group: c1

    Geometry (in Bohr), charge = 0, multiplicity = 1:

       Center              X                  Y                   Z               Mass
    ------------   -----------------  -----------------  -----------------  -----------------
      Gh(N)          -4.293096210000    -3.068374310000     5.305162310000    14.003074004430
      Gh(N)          -2.158473710000    -2.926272960000     1.720374480000    14.003074004430
      Gh(H)          -0.025455870000    -6.359035750000     2.220464520000     1.007825032230
      Gh(H)          -2.685669680000    -6.532602410000     6.614459540000     1.007825032230
      Gh(H)          -4.743884230000    -0.006090060000     2.756159680000     1.007825032230
      Gh(H)          -1.410455400000    -2.247231470000     0.000000000000     1.007825032230
      Gh(C)          -1.437379910000    -5.075048480000     2.940658910000    12.000000000000
      Gh(C)          -2.769007820000    -5.146099160000     5.135228800000    12.000000000000
      Gh(C)          -3.859550360000    -1.777281980000     3.210934110000    12.000000000000
         N            5.552999270000    29.346975360000    13.397234170000    14.003074004430
         N            7.687621770000    29.204874000000     9.812446340000    14.003074004430
         H            9.820639620000    32.637636790000    10.312536380000     1.007825032230
         H            7.160425800000    32.811203450000    14.706531400000     1.007825032230
         H            5.102211260000    26.284691100000    10.848231540000     1.007825032230
         H            8.435640080000    28.525832510000     8.092071860000     1.007825032230
         C            8.408715570000    31.353649530000    11.032730780000    12.000000000000
         C            7.077087660000    31.424700200000    13.227300660000    12.000000000000
         C            5.986545130000    28.055883020000    11.303005980000    12.000000000000

  Charge       = 0
  Multiplicity = 1
  Basis Set: AUG-CC-PVDZ
    Blend: AUG-CC-PVDZ
  Basis Set: (AUG-CC-PVDZ AUX)
    Blend: AUG-CC-PVDZ-JKFIT

    Orbital Energies [Eh]
    ---------------------

    Doubly Occupied:

       1A    -15.637071     2A    -15.551216     3A    -11.300916
       4A    -11.263160     5A    -11.245653     6A     -1.352867
       7A     -1.169098     8A     -1.012098     9A     -0.824390
      10A     -0.803731    11A     -0.760666    12A     -0.610096
      13A     -0.603958    14A     -0.601922    15A     -0.570942
      16A     -0.435483    17A     -0.400464    18A     -0.320685

  @DF-RHF Final Energy:  -224.84369627792310

   => Energetics <=

    Nuclear Repulsion Energy =            164.0866960387093911
    One-Electron Energy =                -628.9319563891681355
    Two-Electron Energy =                 240.0015640725356150
    Total Energy =                       -224.8436962779231010

  Dipole Moment: [D]
     X:     2.0431      Y:    -0.4150      Z:    -3.3867     Total:     3.9769

    SAPT Results
  --------------------------------------------------------------------------------------------------------
    Electrostatics                  0.06235031 [mEh]       0.03912541 [kcal/mol]       0.16370070 [kJ/mol]
      Elst10,r                      0.06235031 [mEh]       0.03912541 [kcal/mol]       0.16370070 [kJ/mol]

    Exchange                       -0.00000000 [mEh]      -0.00000000 [kcal/mol]      -0.00000000 [kJ/mol]
      Exch10                       -0.00000000 [mEh]      -0.00000000 [kcal/mol]      -0.00000000 [kJ/mol]
      Exch10(S^2)                  -0.00000000 [mEh]      -0.00000000 [kcal/mol]      -0.00000000 [kJ/mol]

    Induction                      -0.00007039 [mEh]      -0.00004417 [kcal/mol]      -0.00018481 [kJ/mol]
      Ind20,r                      -0.00007898 [mEh]      -0.00004956 [kcal/mol]      -0.00020737 [kJ/mol]
      Exch-Ind20,r                  0.00000000 [mEh]       0.00000000 [kcal/mol]       0.00000000 [kJ/mol]
      delta HF,r (2)                0.00000859 [mEh]       0.00000539 [kcal/mol]       0.00002255 [kJ/mol]

    Dispersion                     -0.00060539 [mEh]      -0.00037989 [kcal/mol]      -0.00158944 [kJ/mol]
      Disp20                       -0.00060539 [mEh]      -0.00037989 [kcal/mol]      -0.00158944 [kJ/mol]
      Exch-Disp20                   0.00000000 [mEh]       0.00000000 [kcal/mol]       0.00000000 [kJ/mol]
      Disp20 (SS)                  -0.00030269 [mEh]      -0.00018994 [kcal/mol]      -0.00079472 [kJ/mol]
      Disp20 (OS)                  -0.00030269 [mEh]      -0.00018994 [kcal/mol]      -0.00079472 [kJ/mol]
      Exch-Disp20 (SS)              0.00000000 [mEh]       0.00000000 [kcal/mol]       0.00000000 [kJ/mol]
      Exch-Disp20 (OS)              0.00000000 [mEh]       0.00000000 [kcal/mol]       0.00000000 [kJ/mol]

  Total HF                          0.06227991 [mEh]       0.03908124 [kcal/mol]       0.16351589 [kJ/mol]
  Total SAPT0                       0.06167453 [mEh]       0.03870135 [kcal/mol]       0.16192645 [kJ/mol]

  Special recipe for scaled SAPT0 (see Manual):
    Electrostatics sSAPT0           0.06235031 [mEh]       0.03912541 [kcal/mol]       0.16370070 [kJ/mol]
    Exchange sSAPT0                -0.00000000 [mEh]      -0.00000000 [kcal/mol]      -0.00000000 [kJ/mol]
    Induction sSAPT0               -0.00007039 [mEh]      -0.00004417 [kcal/mol]      -0.00018481 [kJ/mol]
    Dispersion sSAPT0              -0.00060539 [mEh]      -0.00037989 [kcal/mol]      -0.00158944 [kJ/mol]
  Total sSAPT0                      0.06167453 [mEh]       0.03870135 [kcal/mol]       0.16192645 [kJ/mol]
  --------------------------------------------------------------------------------------------------------

*** Psi4 exiting successfully. Buy a developer a beer!
