                               Psi4 1.4rc3

  ==> Input File <==

--------------------------------------------------------------------------
# PSI4 file produced by CrystaLattE

# Generated from:               imidazole.xyz
# Psithon input for N-mer:      2mer-0+131
# Number of atoms per monomer:  [9, 9]
# Number of replicas:           2
# COM priority:                 2.734515348692e-05
# Minimum COM separations:      17.565
# Separation priority:          5.737821177060e-05
# Minimum monomer separations:  13.720
# Cutoff priority:              2.213074387834e-06
# Nuclear repulsion energy:     367.3532935980267

memory 7 GB

molecule Dimer_0_131 {
  N           -4.29309621      -3.06837431       5.30516231
  N           -2.15847371      -2.92627296       1.72037448
  H           -0.02545587      -6.35903575       2.22046452
  H           -2.68566968      -6.53260241       6.61445954
  H           -4.74388423      -0.00609006       2.75615968
  H           -1.41045540      -2.24723147       0.00000000
  C           -1.43737991      -5.07504848       2.94065891
  C           -2.76900782      -5.14609916       5.13522880
  C           -3.85955036      -1.77728198       3.21093411
--
  N           14.08066676      22.30686810     -12.78547354
  N           11.94604426      22.44896946      -9.20068571
  H            9.81302641      19.01620666      -9.70077575
  H           12.47324023      18.84264001     -14.09477077
  H           14.53145477      25.36915235     -10.23647090
  H           11.19802595      23.12801094      -7.48031123
  C           11.22495046      20.30019393     -10.42097014
  C           12.55657837      20.22914325     -12.61554003
  C           13.64712090      23.59796043     -10.69124534
units = au
no_com
no_reorient
}

set {
  e_convergence 10
  d_convergence 10
  scf_type df
  mp2_type df
  cc_type df
  freeze_core true
}

energy('sapt0/aug-cc-pvdz')

--------------------------------------------------------------------------

  //              Dimer HF             //
    Molecular point group: c1
  Charge       = 0
  Multiplicity = 1
  Basis Set: AUG-CC-PVDZ
    Blend: AUG-CC-PVDZ
  Basis Set: (AUG-CC-PVDZ AUX)
    Blend: AUG-CC-PVDZ-JKFIT
  @DF-RHF Final Energy:  -449.68737746918345
    Total Energy =                       -449.6873774691835024
  //            Monomer A HF           //
    Molecular point group: c1
  Multiplicity = 1
  Basis Set: AUG-CC-PVDZ
    Blend: AUG-CC-PVDZ
  Basis Set: (AUG-CC-PVDZ AUX)
    Blend: AUG-CC-PVDZ-JKFIT
  @DF-RHF Final Energy:  -224.84369627799117
    Total Energy =                       -224.8436962779911710
  //            Monomer B HF           //
    Molecular point group: c1

    Geometry (in Bohr), charge = 0, multiplicity = 1:

       Center              X                  Y                   Z               Mass
    ------------   -----------------  -----------------  -----------------  -----------------
      Gh(N)          -4.293096210000    -3.068374310000     5.305162310000    14.003074004430
      Gh(N)          -2.158473710000    -2.926272960000     1.720374480000    14.003074004430
      Gh(H)          -0.025455870000    -6.359035750000     2.220464520000     1.007825032230
      Gh(H)          -2.685669680000    -6.532602410000     6.614459540000     1.007825032230
      Gh(H)          -4.743884230000    -0.006090060000     2.756159680000     1.007825032230
      Gh(H)          -1.410455400000    -2.247231470000     0.000000000000     1.007825032230
      Gh(C)          -1.437379910000    -5.075048480000     2.940658910000    12.000000000000
      Gh(C)          -2.769007820000    -5.146099160000     5.135228800000    12.000000000000
      Gh(C)          -3.859550360000    -1.777281980000     3.210934110000    12.000000000000
         N           14.080666760000    22.306868100000   -12.785473540000    14.003074004430
         N           11.946044260000    22.448969460000    -9.200685710000    14.003074004430
         H            9.813026410000    19.016206660000    -9.700775750000     1.007825032230
         H           12.473240230000    18.842640010000   -14.094770770000     1.007825032230
         H           14.531454770000    25.369152350000   -10.236470900000     1.007825032230
         H           11.198025950000    23.128010940000    -7.480311230000     1.007825032230
         C           11.224950460000    20.300193930000   -10.420970140000    12.000000000000
         C           12.556578370000    20.229143250000   -12.615540030000    12.000000000000
         C           13.647120900000    23.597960430000   -10.691245340000    12.000000000000

  Charge       = 0
  Multiplicity = 1
  Basis Set: AUG-CC-PVDZ
    Blend: AUG-CC-PVDZ
  Basis Set: (AUG-CC-PVDZ AUX)
    Blend: AUG-CC-PVDZ-JKFIT

    Orbital Energies [Eh]
    ---------------------

    Doubly Occupied:

       1A    -15.637071     2A    -15.551216     3A    -11.300916
       4A    -11.263160     5A    -11.245653     6A     -1.352867
       7A     -1.169098     8A     -1.012098     9A     -0.824390
      10A     -0.803731    11A     -0.760666    12A     -0.610096
      13A     -0.603958    14A     -0.601922    15A     -0.570942
      16A     -0.435483    17A     -0.400464    18A     -0.320685

  @DF-RHF Final Energy:  -224.84369627800649

   => Energetics <=

    Nuclear Repulsion Energy =            164.0866960153085756
    One-Electron Energy =                -628.9319563423575801
    Two-Electron Energy =                 240.0015640490425142
    Total Energy =                       -224.8436962780064903

  Dipole Moment: [D]
     X:    -2.0431      Y:     0.4150      Z:     3.3867     Total:     3.9769

    SAPT Results
  --------------------------------------------------------------------------------------------------------
    Electrostatics                  0.01533343 [mEh]       0.00962187 [kcal/mol]       0.04025791 [kJ/mol]
      Elst10,r                      0.01533343 [mEh]       0.00962187 [kcal/mol]       0.04025791 [kJ/mol]

    Exchange                        0.00000000 [mEh]       0.00000000 [kcal/mol]       0.00000000 [kJ/mol]
      Exch10                        0.00000000 [mEh]       0.00000000 [kcal/mol]       0.00000000 [kJ/mol]
      Exch10(S^2)                   0.00000000 [mEh]       0.00000000 [kcal/mol]       0.00000000 [kJ/mol]

    Induction                      -0.00024661 [mEh]      -0.00015475 [kcal/mol]      -0.00064748 [kJ/mol]
      Ind20,r                      -0.00022999 [mEh]      -0.00014432 [kcal/mol]      -0.00060383 [kJ/mol]
      Exch-Ind20,r                  0.00000000 [mEh]       0.00000000 [kcal/mol]       0.00000000 [kJ/mol]
      delta HF,r (2)               -0.00001663 [mEh]      -0.00001043 [kcal/mol]      -0.00004366 [kJ/mol]

    Dispersion                     -0.00105594 [mEh]      -0.00066261 [kcal/mol]      -0.00277236 [kJ/mol]
      Disp20                       -0.00105594 [mEh]      -0.00066261 [kcal/mol]      -0.00277236 [kJ/mol]
      Exch-Disp20                   0.00000000 [mEh]       0.00000000 [kcal/mol]       0.00000000 [kJ/mol]
      Disp20 (SS)                  -0.00052797 [mEh]      -0.00033130 [kcal/mol]      -0.00138618 [kJ/mol]
      Disp20 (OS)                  -0.00052797 [mEh]      -0.00033130 [kcal/mol]      -0.00138618 [kJ/mol]
      Exch-Disp20 (SS)              0.00000000 [mEh]       0.00000000 [kcal/mol]       0.00000000 [kJ/mol]
      Exch-Disp20 (OS)              0.00000000 [mEh]       0.00000000 [kcal/mol]       0.00000000 [kJ/mol]

  Total HF                          0.01508681 [mEh]       0.00946712 [kcal/mol]       0.03961043 [kJ/mol]
  Total SAPT0                       0.01403088 [mEh]       0.00880451 [kcal/mol]       0.03683807 [kJ/mol]

  Special recipe for scaled SAPT0 (see Manual):
    Electrostatics sSAPT0           0.01533343 [mEh]       0.00962187 [kcal/mol]       0.04025791 [kJ/mol]
    Exchange sSAPT0                 0.00000000 [mEh]       0.00000000 [kcal/mol]       0.00000000 [kJ/mol]
    Induction sSAPT0               -0.00024661 [mEh]      -0.00015475 [kcal/mol]      -0.00064748 [kJ/mol]
    Dispersion sSAPT0              -0.00105594 [mEh]      -0.00066261 [kcal/mol]      -0.00277236 [kJ/mol]
  Total sSAPT0                      0.01403088 [mEh]       0.00880451 [kcal/mol]       0.03683807 [kJ/mol]
  --------------------------------------------------------------------------------------------------------

*** Psi4 exiting successfully. Buy a developer a beer!
