                               Psi4 1.4rc3

  ==> Input File <==

--------------------------------------------------------------------------
# PSI4 file produced by CrystaLattE

# Generated from:               imidazole.xyz
# Psithon input for N-mer:      2mer-0+61
# Number of atoms per monomer:  [9, 9]
# Number of replicas:           2
# COM priority:                 1.320332065347e-04
# Minimum COM separations:      10.392
# Separation priority:          5.384114972821e-04
# Minimum monomer separations:  6.505
# Cutoff priority:              4.380117561423e-05
# Nuclear repulsion energy:     394.468020387354

memory 7 GB

molecule Dimer_0_61 {
  N           -4.29309621      -3.06837431       5.30516231
  N           -2.15847371      -2.92627296       1.72037448
  H           -0.02545587      -6.35903575       2.22046452
  H           -2.68566968      -6.53260241       6.61445954
  H           -4.74388423      -0.00609006       2.75615968
  H           -1.41045540      -2.24723147       0.00000000
  C           -1.43737991      -5.07504848       2.94065891
  C           -2.76900782      -5.14609916       5.13522880
  C           -3.85955036      -1.77728198       3.21093411
--
  N            0.18908973     -21.40350947      -2.78690955
  N            2.32371223     -21.54561083      -6.37169738
  H            4.45673008     -18.11284803      -5.87160734
  H            1.79651626     -17.93928138      -1.47761232
  H           -0.26169828     -24.46579372      -5.33591219
  H            3.07173054     -22.22465231      -8.09207186
  C            3.04480603     -19.39683530      -5.15141295
  C            1.71317812     -19.32578462      -2.95684306
  C            0.62263559     -22.69460180      -4.88113775
units = au
no_com
no_reorient
}

set {
  e_convergence 10
  d_convergence 10
  scf_type df
  mp2_type df
  cc_type df
  freeze_core true
}

energy('sapt0/aug-cc-pvdz')

--------------------------------------------------------------------------

  //              Dimer HF             //
    Molecular point group: c1
  Charge       = 0
  Multiplicity = 1
  Basis Set: AUG-CC-PVDZ
    Blend: AUG-CC-PVDZ
  Basis Set: (AUG-CC-PVDZ AUX)
    Blend: AUG-CC-PVDZ-JKFIT
  @DF-RHF Final Energy:  -449.68725930067393
    Total Energy =                       -449.6872593006739862
  //            Monomer A HF           //
    Molecular point group: c1
  Multiplicity = 1
  Basis Set: AUG-CC-PVDZ
    Blend: AUG-CC-PVDZ
  Basis Set: (AUG-CC-PVDZ AUX)
    Blend: AUG-CC-PVDZ-JKFIT
  @DF-RHF Final Energy:  -224.84370447959887
    Total Energy =                       -224.8437044795988697
  //            Monomer B HF           //
    Molecular point group: c1

    Geometry (in Bohr), charge = 0, multiplicity = 1:

       Center              X                  Y                   Z               Mass
    ------------   -----------------  -----------------  -----------------  -----------------
      Gh(N)          -4.293096210000    -3.068374310000     5.305162310000    14.003074004430
      Gh(N)          -2.158473710000    -2.926272960000     1.720374480000    14.003074004430
      Gh(H)          -0.025455870000    -6.359035750000     2.220464520000     1.007825032230
      Gh(H)          -2.685669680000    -6.532602410000     6.614459540000     1.007825032230
      Gh(H)          -4.743884230000    -0.006090060000     2.756159680000     1.007825032230
      Gh(H)          -1.410455400000    -2.247231470000     0.000000000000     1.007825032230
      Gh(C)          -1.437379910000    -5.075048480000     2.940658910000    12.000000000000
      Gh(C)          -2.769007820000    -5.146099160000     5.135228800000    12.000000000000
      Gh(C)          -3.859550360000    -1.777281980000     3.210934110000    12.000000000000
         N            0.189089730000   -21.403509470000    -2.786909550000    14.003074004430
         N            2.323712230000   -21.545610830000    -6.371697380000    14.003074004430
         H            4.456730080000   -18.112848030000    -5.871607340000     1.007825032230
         H            1.796516260000   -17.939281380000    -1.477612320000     1.007825032230
         H           -0.261698280000   -24.465793720000    -5.335912190000     1.007825032230
         H            3.071730540000   -22.224652310000    -8.092071860000     1.007825032230
         C            3.044806030000   -19.396835300000    -5.151412950000    12.000000000000
         C            1.713178120000   -19.325784620000    -2.956843060000    12.000000000000
         C            0.622635590000   -22.694601800000    -4.881137750000    12.000000000000

  Charge       = 0
  Multiplicity = 1
  Basis Set: AUG-CC-PVDZ
    Blend: AUG-CC-PVDZ
  Basis Set: (AUG-CC-PVDZ AUX)
    Blend: AUG-CC-PVDZ-JKFIT

    Orbital Energies [Eh]
    ---------------------

    Doubly Occupied:

       1A    -15.637072     2A    -15.551215     3A    -11.300917
       4A    -11.263159     5A    -11.245648     6A     -1.352867
       7A     -1.169099     8A     -1.012098     9A     -0.824390
      10A     -0.803731    11A     -0.760667    12A     -0.610096
      13A     -0.603958    14A     -0.601923    15A     -0.570943
      16A     -0.435483    17A     -0.400465    18A     -0.320686

  @DF-RHF Final Energy:  -224.84370180837473

   => Energetics <=

    Nuclear Repulsion Energy =            164.0866960153085472
    One-Electron Energy =                -628.9319557848731392
    Two-Electron Energy =                 240.0015579611898318
    Total Energy =                       -224.8437018083747319

  Dipole Moment: [D]
     X:     2.0433      Y:    -0.4148      Z:    -3.3868     Total:     3.9771

    SAPT Results
  --------------------------------------------------------------------------------------------------------
    Electrostatics                  0.14937263 [mEh]       0.09373274 [kcal/mol]       0.39217779 [kJ/mol]
      Elst10,r                      0.14937263 [mEh]       0.09373274 [kcal/mol]       0.39217779 [kJ/mol]

    Exchange                        0.00000333 [mEh]       0.00000209 [kcal/mol]       0.00000873 [kJ/mol]
      Exch10                        0.00000333 [mEh]       0.00000209 [kcal/mol]       0.00000873 [kJ/mol]
      Exch10(S^2)                   0.00000333 [mEh]       0.00000209 [kcal/mol]       0.00000873 [kJ/mol]

    Induction                      -0.00238866 [mEh]      -0.00149891 [kcal/mol]      -0.00627142 [kJ/mol]
      Ind20,r                      -0.00244429 [mEh]      -0.00153382 [kcal/mol]      -0.00641749 [kJ/mol]
      Exch-Ind20,r                  0.00000883 [mEh]       0.00000554 [kcal/mol]       0.00002319 [kJ/mol]
      delta HF,r (2)                0.00004680 [mEh]       0.00002937 [kcal/mol]       0.00012288 [kJ/mol]

    Dispersion                     -0.03135777 [mEh]      -0.01967730 [kcal/mol]      -0.08232980 [kJ/mol]
      Disp20                       -0.03135919 [mEh]      -0.01967819 [kcal/mol]      -0.08233354 [kJ/mol]
      Exch-Disp20                   0.00000142 [mEh]       0.00000089 [kcal/mol]       0.00000373 [kJ/mol]
      Disp20 (SS)                  -0.01567959 [mEh]      -0.00983909 [kcal/mol]      -0.04116677 [kJ/mol]
      Disp20 (OS)                  -0.01567959 [mEh]      -0.00983909 [kcal/mol]      -0.04116677 [kJ/mol]
      Exch-Disp20 (SS)              0.00000117 [mEh]       0.00000074 [kcal/mol]       0.00000308 [kJ/mol]
      Exch-Disp20 (OS)              0.00000025 [mEh]       0.00000016 [kcal/mol]       0.00000065 [kJ/mol]

  Total HF                          0.14698730 [mEh]       0.09223592 [kcal/mol]       0.38591510 [kJ/mol]
  Total SAPT0                       0.11562953 [mEh]       0.07255863 [kcal/mol]       0.30358530 [kJ/mol]

  Special recipe for scaled SAPT0 (see Manual):
    Electrostatics sSAPT0           0.14937263 [mEh]       0.09373274 [kcal/mol]       0.39217779 [kJ/mol]
    Exchange sSAPT0                 0.00000333 [mEh]       0.00000209 [kcal/mol]       0.00000873 [kJ/mol]
    Induction sSAPT0               -0.00238866 [mEh]      -0.00149891 [kcal/mol]      -0.00627142 [kJ/mol]
    Dispersion sSAPT0              -0.03135777 [mEh]      -0.01967730 [kcal/mol]      -0.08232980 [kJ/mol]
  Total sSAPT0                      0.11562953 [mEh]       0.07255863 [kcal/mol]       0.30358530 [kJ/mol]
  --------------------------------------------------------------------------------------------------------

*** Psi4 exiting successfully. Buy a developer a beer!
