                               Psi4 1.4rc3

  ==> Input File <==

--------------------------------------------------------------------------
# PSI4 file produced by CrystaLattE

# Generated from:               imidazole.xyz
# Psithon input for N-mer:      2mer-0+2
# Number of atoms per monomer:  [9, 9]
# Number of replicas:           2
# COM priority:                 1.659145944180e-03
# Minimum COM separations:      4.470
# Separation priority:          6.341255916146e-03
# Minimum monomer separations:  2.859
# Cutoff priority:              1.173726853033e-03
# Nuclear repulsion energy:     478.20704500033304

memory 7 GB

molecule Dimer_0_2 {
  N           -4.29309621      -3.06837431       5.30516231
  N           -2.15847371      -2.92627296       1.72037448
  H           -0.02545587      -6.35903575       2.22046452
  H           -2.68566968      -6.53260241       6.61445954
  H           -4.74388423      -0.00609006       2.75615968
  H           -1.41045540      -2.24723147       0.00000000
  C           -1.43737991      -5.07504848       2.94065891
  C           -2.76900782      -5.14609916       5.13522880
  C           -3.85955036      -1.77728198       3.21093411
--
  N            5.11629487       2.00667417       3.39867018
  N            2.98167237       2.14877553       6.98345802
  H            0.84865452      -1.28398727       6.48336797
  H            3.50886834      -1.45755392       2.08937295
  H            5.56708288       5.06895842       5.94767282
  H            2.23365406       2.82781701       8.70383249
  C            2.26057857      -0.00000000       5.76317358
  C            3.59220648      -0.07105068       3.56860369
  C            4.68274902       3.29776650       5.49289838
units = au
no_com
no_reorient
}

set {
  e_convergence 10
  d_convergence 10
  scf_type df
  mp2_type df
  cc_type df
  freeze_core true
}

energy('sapt0/aug-cc-pvdz')

--------------------------------------------------------------------------

  //              Dimer HF             //
    Molecular point group: c1
  Charge       = 0
  Multiplicity = 1
  Basis Set: AUG-CC-PVDZ
    Blend: AUG-CC-PVDZ
  Basis Set: (AUG-CC-PVDZ AUX)
    Blend: AUG-CC-PVDZ-JKFIT
  @DF-RHF Final Energy:  -449.68875060898426
    Total Energy =                       -449.6887506089842645
  //            Monomer A HF           //
    Molecular point group: c1
  Multiplicity = 1
  Basis Set: AUG-CC-PVDZ
    Blend: AUG-CC-PVDZ
  Basis Set: (AUG-CC-PVDZ AUX)
    Blend: AUG-CC-PVDZ-JKFIT
  @DF-RHF Final Energy:  -224.84420335774004
    Total Energy =                       -224.8442033577400423
  //            Monomer B HF           //
    Molecular point group: c1

    Geometry (in Bohr), charge = 0, multiplicity = 1:

       Center              X                  Y                   Z               Mass
    ------------   -----------------  -----------------  -----------------  -----------------
      Gh(N)          -4.293096210000    -3.068374310000     5.305162310000    14.003074004430
      Gh(N)          -2.158473710000    -2.926272960000     1.720374480000    14.003074004430
      Gh(H)          -0.025455870000    -6.359035750000     2.220464520000     1.007825032230
      Gh(H)          -2.685669680000    -6.532602410000     6.614459540000     1.007825032230
      Gh(H)          -4.743884230000    -0.006090060000     2.756159680000     1.007825032230
      Gh(H)          -1.410455400000    -2.247231470000     0.000000000000     1.007825032230
      Gh(C)          -1.437379910000    -5.075048480000     2.940658910000    12.000000000000
      Gh(C)          -2.769007820000    -5.146099160000     5.135228800000    12.000000000000
      Gh(C)          -3.859550360000    -1.777281980000     3.210934110000    12.000000000000
         N            5.116294870000     2.006674170000     3.398670180000    14.003074004430
         N            2.981672370000     2.148775530000     6.983458020000    14.003074004430
         H            0.848654520000    -1.283987270000     6.483367970000     1.007825032230
         H            3.508868340000    -1.457553920000     2.089372950000     1.007825032230
         H            5.567082880000     5.068958420000     5.947672820000     1.007825032230
         H            2.233654060000     2.827817010000     8.703832490000     1.007825032230
         C            2.260578570000     0.000000000000     5.763173580000    12.000000000000
         C            3.592206480000    -0.071050680000     3.568603690000    12.000000000000
         C            4.682749020000     3.297766500000     5.492898380000    12.000000000000

  Charge       = 0
  Multiplicity = 1
  Basis Set: AUG-CC-PVDZ
    Blend: AUG-CC-PVDZ
  Basis Set: (AUG-CC-PVDZ AUX)
    Blend: AUG-CC-PVDZ-JKFIT

    Orbital Energies [Eh]
    ---------------------

    Doubly Occupied:

       1A    -15.637135     2A    -15.551229     3A    -11.300881
       4A    -11.263095     5A    -11.245550     6A     -1.352822
       7A     -1.169058     8A     -1.012039     9A     -0.824348
      10A     -0.803681    11A     -0.760633    12A     -0.610052
      13A     -0.603955    14A     -0.601869    15A     -0.570904
      16A     -0.435450    17A     -0.400450    18A     -0.320665

  @DF-RHF Final Energy:  -224.84405506082291

   => Energetics <=

    Nuclear Repulsion Energy =            164.0866958663273465
    One-Electron Energy =                -628.9338713770437153
    Two-Electron Energy =                 240.0031204498934869
    Total Energy =                       -224.8440550608229103

  Dipole Moment: [D]
     X:    -2.0415      Y:     0.4164      Z:     3.3855     Total:     3.9753

    SAPT Results
  --------------------------------------------------------------------------------------------------------
    Electrostatics                 -4.83061287 [mEh]      -3.03125534 [kcal/mol]     -12.68277235 [kJ/mol]
      Elst10,r                     -4.83061287 [mEh]      -3.03125534 [kcal/mol]     -12.68277235 [kJ/mol]

    Exchange                        5.33844686 [mEh]       3.34992598 [kcal/mol]      14.01609030 [kJ/mol]
      Exch10                        5.33844686 [mEh]       3.34992598 [kcal/mol]      14.01609030 [kJ/mol]
      Exch10(S^2)                   5.33271850 [mEh]       3.34633138 [kcal/mol]      14.00105049 [kJ/mol]

    Induction                      -1.00002441 [mEh]      -0.62752479 [kcal/mol]      -2.62556372 [kJ/mol]
      Ind20,r                      -2.33883132 [mEh]      -1.46763881 [kcal/mol]      -6.14060077 [kJ/mol]
      Exch-Ind20,r                  1.80498361 [mEh]       1.13264431 [kcal/mol]       4.73898381 [kJ/mol]
      delta HF,r (2)               -0.46617670 [mEh]      -0.29253030 [kcal/mol]      -1.22394676 [kJ/mol]

    Dispersion                     -6.62591238 [mEh]      -4.15782279 [kcal/mol]     -17.39633055 [kJ/mol]
      Disp20                       -7.37350501 [mEh]      -4.62694425 [kcal/mol]     -19.35913474 [kJ/mol]
      Exch-Disp20                   0.74759263 [mEh]       0.46912146 [kcal/mol]       1.96280419 [kJ/mol]
      Disp20 (SS)                  -3.68675251 [mEh]      -2.31347212 [kcal/mol]      -9.67956737 [kJ/mol]
      Disp20 (OS)                  -3.68675251 [mEh]      -2.31347212 [kcal/mol]      -9.67956737 [kJ/mol]
      Exch-Disp20 (SS)              0.47670209 [mEh]       0.29913508 [kcal/mol]       1.25158116 [kJ/mol]
      Exch-Disp20 (OS)              0.27089055 [mEh]       0.16998638 [kcal/mol]       0.71122303 [kJ/mol]

  Total HF                         -0.49219042 [mEh]      -0.30885415 [kcal/mol]      -1.29224577 [kJ/mol]
  Total SAPT0                      -7.11810280 [mEh]      -4.46667694 [kcal/mol]     -18.68857632 [kJ/mol]

  Special recipe for scaled SAPT0 (see Manual):
    Electrostatics sSAPT0          -4.83061287 [mEh]      -3.03125534 [kcal/mol]     -12.68277235 [kJ/mol]
    Exchange sSAPT0                 5.33844686 [mEh]       3.34992598 [kcal/mol]      14.01609030 [kJ/mol]
    Induction sSAPT0               -0.99420147 [mEh]      -0.62387084 [kcal/mol]      -2.61027559 [kJ/mol]
    Dispersion sSAPT0              -6.62350061 [mEh]      -4.15630939 [kcal/mol]     -17.38999847 [kJ/mol]
  Total sSAPT0                     -7.10986809 [mEh]      -4.46150959 [kcal/mol]     -18.66695611 [kJ/mol]
  --------------------------------------------------------------------------------------------------------

*** Psi4 exiting successfully. Buy a developer a beer!
