                               Psi4 1.4rc3

  ==> Input File <==

--------------------------------------------------------------------------
# PSI4 file produced by CrystaLattE

# Generated from:               imidazole.xyz
# Psithon input for N-mer:      2mer-0+428
# Number of atoms per monomer:  [9, 9]
# Number of replicas:           1
# COM priority:                 1.340892375563e-05
# Minimum COM separations:      22.274
# Separation priority:          2.357887225997e-05
# Minimum monomer separations:  18.454
# Cutoff priority:              6.761307785876e-07
# Nuclear repulsion energy:     359.04158780360933

memory 7 GB

molecule Dimer_0_428 {
  N           -4.29309621      -3.06837431       5.30516231
  N           -2.15847371      -2.92627296       1.72037448
  H           -0.02545587      -6.35903575       2.22046452
  H           -2.68566968      -6.53260241       6.61445954
  H           -4.74388423      -0.00609006       2.75615968
  H           -1.41045540      -2.24723147       0.00000000
  C           -1.43737991      -5.07504848       2.94065891
  C           -2.76900782      -5.14609916       5.13522880
  C           -3.85955036      -1.77728198       3.21093411
--
  N           38.25504367     -16.32846099      -4.69340168
  N           36.12042117     -16.47056235      -1.10861384
  H           33.98740333     -13.03779955      -1.60870389
  H           36.64761714     -12.86423289      -6.00269891
  H           38.70583168     -19.39074524      -2.14439904
  H           35.37240286     -17.14960383       0.61176063
  C           35.39932737     -14.32178682      -2.32889828
  C           36.73095528     -14.25073614      -4.52346817
  C           37.82149782     -17.61955332      -2.59917348
units = au
no_com
no_reorient
}

set {
  e_convergence 10
  d_convergence 10
  scf_type df
  mp2_type df
  cc_type df
  freeze_core true
}

energy('sapt0/aug-cc-pvdz')

--------------------------------------------------------------------------

  //              Dimer HF             //
    Molecular point group: c1
  Charge       = 0
  Multiplicity = 1
  Basis Set: AUG-CC-PVDZ
    Blend: AUG-CC-PVDZ
  Basis Set: (AUG-CC-PVDZ AUX)
    Blend: AUG-CC-PVDZ-JKFIT
  @DF-RHF Final Energy:  -449.68739356308845
    Total Energy =                       -449.6873935630884489
  //            Monomer A HF           //
    Molecular point group: c1
  Multiplicity = 1
  Basis Set: AUG-CC-PVDZ
    Blend: AUG-CC-PVDZ
  Basis Set: (AUG-CC-PVDZ AUX)
    Blend: AUG-CC-PVDZ-JKFIT
  @DF-RHF Final Energy:  -224.84369627721287
    Total Energy =                       -224.8436962772128709
  //            Monomer B HF           //
    Molecular point group: c1

    Geometry (in Bohr), charge = 0, multiplicity = 1:

       Center              X                  Y                   Z               Mass
    ------------   -----------------  -----------------  -----------------  -----------------
      Gh(N)          -4.293096210000    -3.068374310000     5.305162310000    14.003074004430
      Gh(N)          -2.158473710000    -2.926272960000     1.720374480000    14.003074004430
      Gh(H)          -0.025455870000    -6.359035750000     2.220464520000     1.007825032230
      Gh(H)          -2.685669680000    -6.532602410000     6.614459540000     1.007825032230
      Gh(H)          -4.743884230000    -0.006090060000     2.756159680000     1.007825032230
      Gh(H)          -1.410455400000    -2.247231470000     0.000000000000     1.007825032230
      Gh(C)          -1.437379910000    -5.075048480000     2.940658910000    12.000000000000
      Gh(C)          -2.769007820000    -5.146099160000     5.135228800000    12.000000000000
      Gh(C)          -3.859550360000    -1.777281980000     3.210934110000    12.000000000000
         N           38.255043670000   -16.328460990000    -4.693401680000    14.003074004430
         N           36.120421170000   -16.470562350000    -1.108613840000    14.003074004430
         H           33.987403330000   -13.037799550000    -1.608703890000     1.007825032230
         H           36.647617140000   -12.864232890000    -6.002698910000     1.007825032230
         H           38.705831680000   -19.390745240000    -2.144399040000     1.007825032230
         H           35.372402860000   -17.149603830000     0.611760630000     1.007825032230
         C           35.399327370000   -14.321786820000    -2.328898280000    12.000000000000
         C           36.730955280000   -14.250736140000    -4.523468170000    12.000000000000
         C           37.821497820000   -17.619553320000    -2.599173480000    12.000000000000

  Charge       = 0
  Multiplicity = 1
  Basis Set: AUG-CC-PVDZ
    Blend: AUG-CC-PVDZ
  Basis Set: (AUG-CC-PVDZ AUX)
    Blend: AUG-CC-PVDZ-JKFIT

    Orbital Energies [Eh]
    ---------------------

    Doubly Occupied:

       1A    -15.637071     2A    -15.551216     3A    -11.300916
       4A    -11.263160     5A    -11.245653     6A     -1.352867
       7A     -1.169098     8A     -1.012098     9A     -0.824390
      10A     -0.803731    11A     -0.760666    12A     -0.610096
      13A     -0.603958    14A     -0.601922    15A     -0.570942
      16A     -0.435483    17A     -0.400464    18A     -0.320685

  @DF-RHF Final Energy:  -224.84369627761194

   => Energetics <=

    Nuclear Repulsion Energy =            164.0866958659054546
    One-Electron Energy =                -628.9319560407863037
    Two-Electron Energy =                 240.0015638972689374
    Total Energy =                       -224.8436962776119401

  Dipole Moment: [D]
     X:    -2.0431      Y:    -0.4150      Z:     3.3867     Total:     3.9769

    SAPT Results
  --------------------------------------------------------------------------------------------------------
    Electrostatics                 -0.00096512 [mEh]      -0.00060562 [kcal/mol]      -0.00253392 [kJ/mol]
      Elst10,r                     -0.00096512 [mEh]      -0.00060562 [kcal/mol]      -0.00253392 [kJ/mol]

    Exchange                        0.00000000 [mEh]       0.00000000 [kcal/mol]       0.00000000 [kJ/mol]
      Exch10                        0.00000000 [mEh]       0.00000000 [kcal/mol]       0.00000000 [kJ/mol]
      Exch10(S^2)                   0.00000000 [mEh]       0.00000000 [kcal/mol]       0.00000000 [kJ/mol]

    Induction                      -0.00004314 [mEh]      -0.00002707 [kcal/mol]      -0.00011327 [kJ/mol]
      Ind20,r                      -0.00003896 [mEh]      -0.00002445 [kcal/mol]      -0.00010230 [kJ/mol]
      Exch-Ind20,r                  0.00000000 [mEh]       0.00000000 [kcal/mol]       0.00000000 [kJ/mol]
      delta HF,r (2)               -0.00000418 [mEh]      -0.00000262 [kcal/mol]      -0.00001098 [kJ/mol]

    Dispersion                     -0.00024084 [mEh]      -0.00015113 [kcal/mol]      -0.00063232 [kJ/mol]
      Disp20                       -0.00024084 [mEh]      -0.00015113 [kcal/mol]      -0.00063232 [kJ/mol]
      Exch-Disp20                   0.00000000 [mEh]       0.00000000 [kcal/mol]       0.00000000 [kJ/mol]
      Disp20 (SS)                  -0.00012042 [mEh]      -0.00007556 [kcal/mol]      -0.00031616 [kJ/mol]
      Disp20 (OS)                  -0.00012042 [mEh]      -0.00007556 [kcal/mol]      -0.00031616 [kJ/mol]
      Exch-Disp20 (SS)              0.00000000 [mEh]       0.00000000 [kcal/mol]       0.00000000 [kJ/mol]
      Exch-Disp20 (OS)              0.00000000 [mEh]       0.00000000 [kcal/mol]       0.00000000 [kJ/mol]

  Total HF                         -0.00100826 [mEh]      -0.00063269 [kcal/mol]      -0.00264720 [kJ/mol]
  Total SAPT0                      -0.00124910 [mEh]      -0.00078382 [kcal/mol]      -0.00327951 [kJ/mol]

  Special recipe for scaled SAPT0 (see Manual):
    Electrostatics sSAPT0          -0.00096512 [mEh]      -0.00060562 [kcal/mol]      -0.00253392 [kJ/mol]
    Exchange sSAPT0                 0.00000000 [mEh]       0.00000000 [kcal/mol]       0.00000000 [kJ/mol]
    Induction sSAPT0               -0.00004314 [mEh]      -0.00002707 [kcal/mol]      -0.00011327 [kJ/mol]
    Dispersion sSAPT0              -0.00024084 [mEh]      -0.00015113 [kcal/mol]      -0.00063232 [kJ/mol]
  Total sSAPT0                     -0.00124910 [mEh]      -0.00078382 [kcal/mol]      -0.00327951 [kJ/mol]
  --------------------------------------------------------------------------------------------------------

*** Psi4 exiting successfully. Buy a developer a beer!
