                               Psi4 1.4rc3

  ==> Input File <==

--------------------------------------------------------------------------
# PSI4 file produced by CrystaLattE

# Generated from:               imidazole.xyz
# Psithon input for N-mer:      2mer-0+335
# Number of atoms per monomer:  [9, 9]
# Number of replicas:           1
# COM priority:                 2.394594039821e-05
# Minimum COM separations:      18.359
# Separation priority:          2.967117788513e-05
# Minimum monomer separations:  17.093
# Cutoff priority:              9.185716755578e-07
# Nuclear repulsion energy:     365.366420622119

memory 7 GB

molecule Dimer_0_335 {
  N           -4.29309621      -3.06837431       5.30516231
  N           -2.15847371      -2.92627296       1.72037448
  H           -0.02545587      -6.35903575       2.22046452
  H           -2.68566968      -6.53260241       6.61445954
  H           -4.74388423      -0.00609006       2.75615968
  H           -1.41045540      -2.24723147       0.00000000
  C           -1.43737991      -5.07504848       2.94065891
  C           -2.76900782      -5.14609916       5.13522880
  C           -3.85955036      -1.77728198       3.21093411
--
  N           20.32629989       3.97173294      27.67488576
  N           18.19167739       3.82963158      31.25967360
  H           16.05865955       7.26239438      30.75958356
  H           18.71887336       7.43596104      26.36558854
  H           20.77708791       0.90944869      30.22388840
  H           17.44365909       3.15059010      32.98004808
  C           17.47058359       5.97840711      30.03938916
  C           18.80221150       6.04945779      27.84481927
  C           19.89275404       2.68064061      29.76911396
units = au
no_com
no_reorient
}

set {
  e_convergence 10
  d_convergence 10
  scf_type df
  mp2_type df
  cc_type df
  freeze_core true
}

energy('sapt0/aug-cc-pvdz')

--------------------------------------------------------------------------

  //              Dimer HF             //
    Molecular point group: c1
  Charge       = 0
  Multiplicity = 1
  Basis Set: AUG-CC-PVDZ
    Blend: AUG-CC-PVDZ
  Basis Set: (AUG-CC-PVDZ AUX)
    Blend: AUG-CC-PVDZ-JKFIT
  @DF-RHF Final Energy:  -449.68742089140039
    Total Energy =                       -449.6874208914003930
  //            Monomer A HF           //
    Molecular point group: c1
  Multiplicity = 1
  Basis Set: AUG-CC-PVDZ
    Blend: AUG-CC-PVDZ
  Basis Set: (AUG-CC-PVDZ AUX)
    Blend: AUG-CC-PVDZ-JKFIT
  @DF-RHF Final Energy:  -224.84369627779216
    Total Energy =                       -224.8436962777921622
  //            Monomer B HF           //
    Molecular point group: c1

    Geometry (in Bohr), charge = 0, multiplicity = 1:

       Center              X                  Y                   Z               Mass
    ------------   -----------------  -----------------  -----------------  -----------------
      Gh(N)          -4.293096210000    -3.068374310000     5.305162310000    14.003074004430
      Gh(N)          -2.158473710000    -2.926272960000     1.720374480000    14.003074004430
      Gh(H)          -0.025455870000    -6.359035750000     2.220464520000     1.007825032230
      Gh(H)          -2.685669680000    -6.532602410000     6.614459540000     1.007825032230
      Gh(H)          -4.743884230000    -0.006090060000     2.756159680000     1.007825032230
      Gh(H)          -1.410455400000    -2.247231470000     0.000000000000     1.007825032230
      Gh(C)          -1.437379910000    -5.075048480000     2.940658910000    12.000000000000
      Gh(C)          -2.769007820000    -5.146099160000     5.135228800000    12.000000000000
      Gh(C)          -3.859550360000    -1.777281980000     3.210934110000    12.000000000000
         N           20.326299890000     3.971732940000    27.674885760000    14.003074004430
         N           18.191677390000     3.829631580000    31.259673600000    14.003074004430
         H           16.058659550000     7.262394380000    30.759583560000     1.007825032230
         H           18.718873360000     7.435961040000    26.365588540000     1.007825032230
         H           20.777087910000     0.909448690000    30.223888400000     1.007825032230
         H           17.443659090000     3.150590100000    32.980048080000     1.007825032230
         C           17.470583590000     5.978407110000    30.039389160000    12.000000000000
         C           18.802211500000     6.049457790000    27.844819270000    12.000000000000
         C           19.892754040000     2.680640610000    29.769113960000    12.000000000000

  Charge       = 0
  Multiplicity = 1
  Basis Set: AUG-CC-PVDZ
    Blend: AUG-CC-PVDZ
  Basis Set: (AUG-CC-PVDZ AUX)
    Blend: AUG-CC-PVDZ-JKFIT

    Orbital Energies [Eh]
    ---------------------

    Doubly Occupied:

       1A    -15.637071     2A    -15.551216     3A    -11.300916
       4A    -11.263160     5A    -11.245653     6A     -1.352867
       7A     -1.169098     8A     -1.012098     9A     -0.824390
      10A     -0.803731    11A     -0.760666    12A     -0.610096
      13A     -0.603958    14A     -0.601922    15A     -0.570942
      16A     -0.435483    17A     -0.400464    18A     -0.320685

  @DF-RHF Final Energy:  -224.84369627918687

   => Energetics <=

    Nuclear Repulsion Energy =            164.0866958503379465
    One-Electron Energy =                -628.9319560174562866
    Two-Electron Energy =                 240.0015638879314679
    Total Energy =                       -224.8436962791868723

  Dipole Moment: [D]
     X:    -2.0431      Y:    -0.4150      Z:     3.3867     Total:     3.9769

    SAPT Results
  --------------------------------------------------------------------------------------------------------
    Electrostatics                 -0.02826949 [mEh]      -0.01773937 [kcal/mol]      -0.07422153 [kJ/mol]
      Elst10,r                     -0.02826949 [mEh]      -0.01773937 [kcal/mol]      -0.07422153 [kJ/mol]

    Exchange                        0.00000000 [mEh]       0.00000000 [kcal/mol]       0.00000000 [kJ/mol]
      Exch10                        0.00000000 [mEh]       0.00000000 [kcal/mol]       0.00000000 [kJ/mol]
      Exch10(S^2)                   0.00000000 [mEh]       0.00000000 [kcal/mol]       0.00000000 [kJ/mol]

    Induction                      -0.00006493 [mEh]      -0.00004075 [kcal/mol]      -0.00017048 [kJ/mol]
      Ind20,r                      -0.00007415 [mEh]      -0.00004653 [kcal/mol]      -0.00019469 [kJ/mol]
      Exch-Ind20,r                  0.00000000 [mEh]       0.00000000 [kcal/mol]       0.00000000 [kJ/mol]
      delta HF,r (2)                0.00000922 [mEh]       0.00000579 [kcal/mol]       0.00002420 [kJ/mol]

    Dispersion                     -0.00060759 [mEh]      -0.00038127 [kcal/mol]      -0.00159523 [kJ/mol]
      Disp20                       -0.00060759 [mEh]      -0.00038127 [kcal/mol]      -0.00159523 [kJ/mol]
      Exch-Disp20                   0.00000000 [mEh]       0.00000000 [kcal/mol]       0.00000000 [kJ/mol]
      Disp20 (SS)                  -0.00030380 [mEh]      -0.00019063 [kcal/mol]      -0.00079761 [kJ/mol]
      Disp20 (OS)                  -0.00030380 [mEh]      -0.00019063 [kcal/mol]      -0.00079761 [kJ/mol]
      Exch-Disp20 (SS)              0.00000000 [mEh]       0.00000000 [kcal/mol]       0.00000000 [kJ/mol]
      Exch-Disp20 (OS)              0.00000000 [mEh]       0.00000000 [kcal/mol]       0.00000000 [kJ/mol]

  Total HF                         -0.02833442 [mEh]      -0.01778012 [kcal/mol]      -0.07439201 [kJ/mol]
  Total SAPT0                      -0.02894201 [mEh]      -0.01816139 [kcal/mol]      -0.07598724 [kJ/mol]

  Special recipe for scaled SAPT0 (see Manual):
    Electrostatics sSAPT0          -0.02826949 [mEh]      -0.01773937 [kcal/mol]      -0.07422153 [kJ/mol]
    Exchange sSAPT0                 0.00000000 [mEh]       0.00000000 [kcal/mol]       0.00000000 [kJ/mol]
    Induction sSAPT0               -0.00006493 [mEh]      -0.00004075 [kcal/mol]      -0.00017048 [kJ/mol]
    Dispersion sSAPT0              -0.00060759 [mEh]      -0.00038127 [kcal/mol]      -0.00159523 [kJ/mol]
  Total sSAPT0                     -0.02894201 [mEh]      -0.01816139 [kcal/mol]      -0.07598724 [kJ/mol]
  --------------------------------------------------------------------------------------------------------

*** Psi4 exiting successfully. Buy a developer a beer!
