                               Psi4 1.4rc3

  ==> Input File <==

--------------------------------------------------------------------------
# PSI4 file produced by CrystaLattE

# Generated from:               imidazole.xyz
# Psithon input for N-mer:      2mer-0+47
# Number of atoms per monomer:  [9, 9]
# Number of replicas:           2
# COM priority:                 6.948949296174e-05
# Minimum COM separations:      12.871
# Separation priority:          1.625298785470e-04
# Minimum monomer separations:  9.697
# Cutoff priority:              8.869741190393e-06
# Nuclear repulsion energy:     381.4888860169159

memory 7 GB

molecule Dimer_0_47 {
  N           -4.29309621      -3.06837431       5.30516231
  N           -2.15847371      -2.92627296       1.72037448
  H           -0.02545587      -6.35903575       2.22046452
  H           -2.68566968      -6.53260241       6.61445954
  H           -4.74388423      -0.00609006       2.75615968
  H           -1.41045540      -2.24723147       0.00000000
  C           -1.43737991      -5.07504848       2.94065891
  C           -2.76900782      -5.14609916       5.13522880
  C           -3.85955036      -1.77728198       3.21093411
--
  N           14.51737116       9.04678142      -2.78690955
  N           16.65199366       8.90468007      -6.37169738
  H           18.78501151      12.33744286      -5.87160734
  H           16.12479769      12.51100952      -1.47761232
  H           14.06658315       5.98449717      -5.33591219
  H           17.40001197       8.22563858      -8.09207186
  C           17.37308746      11.05345559      -5.15141295
  C           16.04145955      11.12450627      -2.95684306
  C           14.95091701       7.75568909      -4.88113775
units = au
no_com
no_reorient
}

set {
  e_convergence 10
  d_convergence 10
  scf_type df
  mp2_type df
  cc_type df
  freeze_core true
}

energy('sapt0/aug-cc-pvdz')

--------------------------------------------------------------------------

  //              Dimer HF             //
    Molecular point group: c1
  Charge       = 0
  Multiplicity = 1
  Basis Set: AUG-CC-PVDZ
    Blend: AUG-CC-PVDZ
  Basis Set: (AUG-CC-PVDZ AUX)
    Blend: AUG-CC-PVDZ-JKFIT
  @DF-RHF Final Energy:  -449.68741972977494
    Total Energy =                       -449.6874197297748879
  //            Monomer A HF           //
    Molecular point group: c1
  Multiplicity = 1
  Basis Set: AUG-CC-PVDZ
    Blend: AUG-CC-PVDZ
  Basis Set: (AUG-CC-PVDZ AUX)
    Blend: AUG-CC-PVDZ-JKFIT
  @DF-RHF Final Energy:  -224.84369639622261
    Total Energy =                       -224.8436963962226116
  //            Monomer B HF           //
    Molecular point group: c1

    Geometry (in Bohr), charge = 0, multiplicity = 1:

       Center              X                  Y                   Z               Mass
    ------------   -----------------  -----------------  -----------------  -----------------
      Gh(N)          -4.293096210000    -3.068374310000     5.305162310000    14.003074004430
      Gh(N)          -2.158473710000    -2.926272960000     1.720374480000    14.003074004430
      Gh(H)          -0.025455870000    -6.359035750000     2.220464520000     1.007825032230
      Gh(H)          -2.685669680000    -6.532602410000     6.614459540000     1.007825032230
      Gh(H)          -4.743884230000    -0.006090060000     2.756159680000     1.007825032230
      Gh(H)          -1.410455400000    -2.247231470000     0.000000000000     1.007825032230
      Gh(C)          -1.437379910000    -5.075048480000     2.940658910000    12.000000000000
      Gh(C)          -2.769007820000    -5.146099160000     5.135228800000    12.000000000000
      Gh(C)          -3.859550360000    -1.777281980000     3.210934110000    12.000000000000
         N           14.517371160000     9.046781420000    -2.786909550000    14.003074004430
         N           16.651993660000     8.904680070000    -6.371697380000    14.003074004430
         H           18.785011510000    12.337442860000    -5.871607340000     1.007825032230
         H           16.124797690000    12.511009520000    -1.477612320000     1.007825032230
         H           14.066583150000     5.984497170000    -5.335912190000     1.007825032230
         H           17.400011970000     8.225638580000    -8.092071860000     1.007825032230
         C           17.373087460000    11.053455590000    -5.151412950000    12.000000000000
         C           16.041459550000    11.124506270000    -2.956843060000    12.000000000000
         C           14.950917010000     7.755689090000    -4.881137750000    12.000000000000

  Charge       = 0
  Multiplicity = 1
  Basis Set: AUG-CC-PVDZ
    Blend: AUG-CC-PVDZ
  Basis Set: (AUG-CC-PVDZ AUX)
    Blend: AUG-CC-PVDZ-JKFIT

    Orbital Energies [Eh]
    ---------------------

    Doubly Occupied:

       1A    -15.637071     2A    -15.551216     3A    -11.300916
       4A    -11.263160     5A    -11.245653     6A     -1.352867
       7A     -1.169098     8A     -1.012098     9A     -0.824390
      10A     -0.803731    11A     -0.760666    12A     -0.610096
      13A     -0.603958    14A     -0.601922    15A     -0.570942
      16A     -0.435483    17A     -0.400464    18A     -0.320685

  @DF-RHF Final Energy:  -224.84369644787935

   => Energetics <=

    Nuclear Repulsion Energy =            164.0866959830293865
    One-Electron Energy =                -628.9319575812550056
    Two-Electron Energy =                 240.0015651503462948
    Total Energy =                       -224.8436964478793527

  Dipole Moment: [D]
     X:     2.0431      Y:    -0.4150      Z:    -3.3867     Total:     3.9769

    SAPT Results
  --------------------------------------------------------------------------------------------------------
    Electrostatics                 -0.02541387 [mEh]      -0.01594744 [kcal/mol]      -0.06672411 [kJ/mol]
      Elst10,r                     -0.02541387 [mEh]      -0.01594744 [kcal/mol]      -0.06672411 [kJ/mol]

    Exchange                        0.00000009 [mEh]       0.00000006 [kcal/mol]       0.00000024 [kJ/mol]
      Exch10                        0.00000009 [mEh]       0.00000006 [kcal/mol]       0.00000024 [kJ/mol]
      Exch10(S^2)                   0.00000009 [mEh]       0.00000006 [kcal/mol]       0.00000024 [kJ/mol]

    Induction                      -0.00147189 [mEh]      -0.00092363 [kcal/mol]      -0.00386445 [kJ/mol]
      Ind20,r                      -0.00147572 [mEh]      -0.00092603 [kcal/mol]      -0.00387451 [kJ/mol]
      Exch-Ind20,r                  0.00000019 [mEh]       0.00000012 [kcal/mol]       0.00000051 [kJ/mol]
      delta HF,r (2)                0.00000364 [mEh]       0.00000228 [kcal/mol]       0.00000955 [kJ/mol]

    Dispersion                     -0.00658027 [mEh]      -0.00412918 [kcal/mol]      -0.01727649 [kJ/mol]
      Disp20                       -0.00658029 [mEh]      -0.00412919 [kcal/mol]      -0.01727654 [kJ/mol]
      Exch-Disp20                   0.00000002 [mEh]       0.00000001 [kcal/mol]       0.00000004 [kJ/mol]
      Disp20 (SS)                  -0.00329014 [mEh]      -0.00206460 [kcal/mol]      -0.00863827 [kJ/mol]
      Disp20 (OS)                  -0.00329014 [mEh]      -0.00206460 [kcal/mol]      -0.00863827 [kJ/mol]
      Exch-Disp20 (SS)              0.00000001 [mEh]       0.00000001 [kcal/mol]       0.00000003 [kJ/mol]
      Exch-Disp20 (OS)              0.00000000 [mEh]       0.00000000 [kcal/mol]       0.00000001 [kJ/mol]

  Total HF                         -0.02688567 [mEh]      -0.01687101 [kcal/mol]      -0.07058832 [kJ/mol]
  Total SAPT0                      -0.03346594 [mEh]      -0.02100020 [kcal/mol]      -0.08786482 [kJ/mol]

  Special recipe for scaled SAPT0 (see Manual):
    Electrostatics sSAPT0          -0.02541387 [mEh]      -0.01594744 [kcal/mol]      -0.06672411 [kJ/mol]
    Exchange sSAPT0                 0.00000009 [mEh]       0.00000006 [kcal/mol]       0.00000024 [kJ/mol]
    Induction sSAPT0               -0.00147189 [mEh]      -0.00092363 [kcal/mol]      -0.00386445 [kJ/mol]
    Dispersion sSAPT0              -0.00658027 [mEh]      -0.00412918 [kcal/mol]      -0.01727649 [kJ/mol]
  Total sSAPT0                     -0.03346594 [mEh]      -0.02100020 [kcal/mol]      -0.08786482 [kJ/mol]
  --------------------------------------------------------------------------------------------------------

*** Psi4 exiting successfully. Buy a developer a beer!
