                               Psi4 1.4rc3

  ==> Input File <==

--------------------------------------------------------------------------
# PSI4 file produced by CrystaLattE

# Generated from:               imidazole.xyz
# Psithon input for N-mer:      2mer-0+430
# Number of atoms per monomer:  [9, 9]
# Number of replicas:           2
# COM priority:                 1.231986456711e-05
# Minimum COM separations:      22.912
# Separation priority:          1.928642018344e-05
# Minimum monomer separations:  19.733
# Cutoff priority:              5.172122856389e-07
# Nuclear repulsion energy:     358.133282703426

memory 7 GB

molecule Dimer_0_430 {
  N           -4.29309621      -3.06837431       5.30516231
  N           -2.15847371      -2.92627296       1.72037448
  H           -0.02545587      -6.35903575       2.22046452
  H           -2.68566968      -6.53260241       6.61445954
  H           -4.74388423      -0.00609006       2.75615968
  H           -1.41045540      -2.24723147       0.00000000
  C           -1.43737991      -5.07504848       2.94065891
  C           -2.76900782      -5.14609916       5.13522880
  C           -3.85955036      -1.77728198       3.21093411
--
  N            3.78955208       9.04678142     -35.15519699
  N            5.92417458       8.90468007     -38.73998483
  H            8.05719243      12.33744286     -38.23989479
  H            5.39697861      12.51100952     -33.84589977
  H            3.33876407       5.98449717     -37.70419963
  H            6.67219289       8.22563858     -40.46035930
  C            6.64526838      11.05345559     -37.51970039
  C            5.31364047      11.12450627     -35.32513050
  C            4.22309793       7.75568909     -37.24942519
units = au
no_com
no_reorient
}

set {
  e_convergence 10
  d_convergence 10
  scf_type df
  mp2_type df
  cc_type df
  freeze_core true
}

energy('sapt0/aug-cc-pvdz')

--------------------------------------------------------------------------

  //              Dimer HF             //
    Molecular point group: c1
  Charge       = 0
  Multiplicity = 1
  Basis Set: AUG-CC-PVDZ
    Blend: AUG-CC-PVDZ
  Basis Set: (AUG-CC-PVDZ AUX)
    Blend: AUG-CC-PVDZ-JKFIT
  @DF-RHF Final Energy:  -449.68744338180562
    Total Energy =                       -449.6874433818056218
  //            Monomer A HF           //
    Molecular point group: c1
  Multiplicity = 1
  Basis Set: AUG-CC-PVDZ
    Blend: AUG-CC-PVDZ
  Basis Set: (AUG-CC-PVDZ AUX)
    Blend: AUG-CC-PVDZ-JKFIT
  @DF-RHF Final Energy:  -224.84369627778287
    Total Energy =                       -224.8436962777828683
  //            Monomer B HF           //
    Molecular point group: c1

    Geometry (in Bohr), charge = 0, multiplicity = 1:

       Center              X                  Y                   Z               Mass
    ------------   -----------------  -----------------  -----------------  -----------------
      Gh(N)          -4.293096210000    -3.068374310000     5.305162310000    14.003074004430
      Gh(N)          -2.158473710000    -2.926272960000     1.720374480000    14.003074004430
      Gh(H)          -0.025455870000    -6.359035750000     2.220464520000     1.007825032230
      Gh(H)          -2.685669680000    -6.532602410000     6.614459540000     1.007825032230
      Gh(H)          -4.743884230000    -0.006090060000     2.756159680000     1.007825032230
      Gh(H)          -1.410455400000    -2.247231470000     0.000000000000     1.007825032230
      Gh(C)          -1.437379910000    -5.075048480000     2.940658910000    12.000000000000
      Gh(C)          -2.769007820000    -5.146099160000     5.135228800000    12.000000000000
      Gh(C)          -3.859550360000    -1.777281980000     3.210934110000    12.000000000000
         N            3.789552080000     9.046781420000   -35.155196990000    14.003074004430
         N            5.924174580000     8.904680070000   -38.739984830000    14.003074004430
         H            8.057192430000    12.337442860000   -38.239894790000     1.007825032230
         H            5.396978610000    12.511009520000   -33.845899770000     1.007825032230
         H            3.338764070000     5.984497170000   -37.704199630000     1.007825032230
         H            6.672192890000     8.225638580000   -40.460359300000     1.007825032230
         C            6.645268380000    11.053455590000   -37.519700390000    12.000000000000
         C            5.313640470000    11.124506270000   -35.325130500000    12.000000000000
         C            4.223097930000     7.755689090000   -37.249425190000    12.000000000000

  Charge       = 0
  Multiplicity = 1
  Basis Set: AUG-CC-PVDZ
    Blend: AUG-CC-PVDZ
  Basis Set: (AUG-CC-PVDZ AUX)
    Blend: AUG-CC-PVDZ-JKFIT

    Orbital Energies [Eh]
    ---------------------

    Doubly Occupied:

       1A    -15.637071     2A    -15.551216     3A    -11.300916
       4A    -11.263160     5A    -11.245653     6A     -1.352867
       7A     -1.169098     8A     -1.012098     9A     -0.824390
      10A     -0.803731    11A     -0.760666    12A     -0.610096
      13A     -0.603958    14A     -0.601922    15A     -0.570942
      16A     -0.435483    17A     -0.400464    18A     -0.320685

  @DF-RHF Final Energy:  -224.84369627820070

   => Energetics <=

    Nuclear Repulsion Energy =            164.0866958918367118
    One-Electron Energy =                -628.9319560906355946
    Two-Electron Energy =                 240.0015639205981870
    Total Energy =                       -224.8436962782006958

  Dipole Moment: [D]
     X:     2.0431      Y:    -0.4150      Z:    -3.3867     Total:     3.9769

    SAPT Results
  --------------------------------------------------------------------------------------------------------
    Electrostatics                 -0.05074770 [mEh]      -0.03184466 [kcal/mol]      -0.13323806 [kJ/mol]
      Elst10,r                     -0.05074770 [mEh]      -0.03184466 [kcal/mol]      -0.13323806 [kJ/mol]

    Exchange                        0.00000000 [mEh]       0.00000000 [kcal/mol]       0.00000000 [kJ/mol]
      Exch10                        0.00000000 [mEh]       0.00000000 [kcal/mol]       0.00000000 [kJ/mol]
      Exch10(S^2)                   0.00000000 [mEh]       0.00000000 [kcal/mol]       0.00000000 [kJ/mol]

    Induction                      -0.00007813 [mEh]      -0.00004903 [kcal/mol]      -0.00020512 [kJ/mol]
      Ind20,r                      -0.00007007 [mEh]      -0.00004397 [kcal/mol]      -0.00018397 [kJ/mol]
      Exch-Ind20,r                  0.00000000 [mEh]       0.00000000 [kcal/mol]       0.00000000 [kJ/mol]
      delta HF,r (2)               -0.00000806 [mEh]      -0.00000505 [kcal/mol]      -0.00002115 [kJ/mol]

    Dispersion                     -0.00020515 [mEh]      -0.00012873 [kcal/mol]      -0.00053861 [kJ/mol]
      Disp20                       -0.00020515 [mEh]      -0.00012873 [kcal/mol]      -0.00053861 [kJ/mol]
      Exch-Disp20                   0.00000000 [mEh]       0.00000000 [kcal/mol]       0.00000000 [kJ/mol]
      Disp20 (SS)                  -0.00010257 [mEh]      -0.00006437 [kcal/mol]      -0.00026930 [kJ/mol]
      Disp20 (OS)                  -0.00010257 [mEh]      -0.00006437 [kcal/mol]      -0.00026930 [kJ/mol]
      Exch-Disp20 (SS)              0.00000000 [mEh]       0.00000000 [kcal/mol]       0.00000000 [kJ/mol]
      Exch-Disp20 (OS)              0.00000000 [mEh]       0.00000000 [kcal/mol]       0.00000000 [kJ/mol]

  Total HF                         -0.05082582 [mEh]      -0.03189368 [kcal/mol]      -0.13344318 [kJ/mol]
  Total SAPT0                      -0.05103097 [mEh]      -0.03202242 [kcal/mol]      -0.13398179 [kJ/mol]

  Special recipe for scaled SAPT0 (see Manual):
    Electrostatics sSAPT0          -0.05074770 [mEh]      -0.03184466 [kcal/mol]      -0.13323806 [kJ/mol]
    Exchange sSAPT0                 0.00000000 [mEh]       0.00000000 [kcal/mol]       0.00000000 [kJ/mol]
    Induction sSAPT0               -0.00007813 [mEh]      -0.00004903 [kcal/mol]      -0.00020512 [kJ/mol]
    Dispersion sSAPT0              -0.00020515 [mEh]      -0.00012873 [kcal/mol]      -0.00053861 [kJ/mol]
  Total sSAPT0                     -0.05103097 [mEh]      -0.03202242 [kcal/mol]      -0.13398179 [kJ/mol]
  --------------------------------------------------------------------------------------------------------

*** Psi4 exiting successfully. Buy a developer a beer!
