                               Psi4 1.4rc3

  ==> Input File <==

--------------------------------------------------------------------------
# PSI4 file produced by CrystaLattE

# Generated from:               imidazole.xyz
# Psithon input for N-mer:      2mer-0+154
# Number of atoms per monomer:  [9, 9]
# Number of replicas:           2
# COM priority:                 2.803659668291e-05
# Minimum COM separations:      17.419
# Separation priority:          4.686497935341e-05
# Minimum monomer separations:  14.677
# Cutoff priority:              1.689654489927e-06
# Nuclear repulsion energy:     367.57738021489024

memory 7 GB

molecule Dimer_0_154 {
  N           -4.29309621      -3.06837431       5.30516231
  N           -2.15847371      -2.92627296       1.72037448
  H           -0.02545587      -6.35903575       2.22046452
  H           -2.68566968      -6.53260241       6.61445954
  H           -4.74388423      -0.00609006       2.75615968
  H           -1.41045540      -2.24723147       0.00000000
  C           -1.43737991      -5.07504848       2.94065891
  C           -2.76900782      -5.14609916       5.13522880
  C           -3.85955036      -1.77728198       3.21093411
--
  N           19.44457630      22.30686810       3.39867018
  N           17.30995380      22.44896946       6.98345802
  H           15.17693595      19.01620666       6.48336797
  H           17.83714977      18.84264001       2.08937295
  H           19.89536431      25.36915235       5.94767282
  H           16.56193549      23.12801094       8.70383249
  C           16.58886000      20.30019393       5.76317358
  C           17.92048791      20.22914325       3.56860369
  C           19.01103044      23.59796043       5.49289838
units = au
no_com
no_reorient
}

set {
  e_convergence 10
  d_convergence 10
  scf_type df
  mp2_type df
  cc_type df
  freeze_core true
}

energy('sapt0/aug-cc-pvdz')

--------------------------------------------------------------------------

  //              Dimer HF             //
    Molecular point group: c1
  Charge       = 0
  Multiplicity = 1
  Basis Set: AUG-CC-PVDZ
    Blend: AUG-CC-PVDZ
  Basis Set: (AUG-CC-PVDZ AUX)
    Blend: AUG-CC-PVDZ-JKFIT
  @DF-RHF Final Energy:  -449.68743917927566
    Total Energy =                       -449.6874391792756569
  //            Monomer A HF           //
    Molecular point group: c1
  Multiplicity = 1
  Basis Set: AUG-CC-PVDZ
    Blend: AUG-CC-PVDZ
  Basis Set: (AUG-CC-PVDZ AUX)
    Blend: AUG-CC-PVDZ-JKFIT
  @DF-RHF Final Energy:  -224.84369627939549
    Total Energy =                       -224.8436962793954876
  //            Monomer B HF           //
    Molecular point group: c1

    Geometry (in Bohr), charge = 0, multiplicity = 1:

       Center              X                  Y                   Z               Mass
    ------------   -----------------  -----------------  -----------------  -----------------
      Gh(N)          -4.293096210000    -3.068374310000     5.305162310000    14.003074004430
      Gh(N)          -2.158473710000    -2.926272960000     1.720374480000    14.003074004430
      Gh(H)          -0.025455870000    -6.359035750000     2.220464520000     1.007825032230
      Gh(H)          -2.685669680000    -6.532602410000     6.614459540000     1.007825032230
      Gh(H)          -4.743884230000    -0.006090060000     2.756159680000     1.007825032230
      Gh(H)          -1.410455400000    -2.247231470000     0.000000000000     1.007825032230
      Gh(C)          -1.437379910000    -5.075048480000     2.940658910000    12.000000000000
      Gh(C)          -2.769007820000    -5.146099160000     5.135228800000    12.000000000000
      Gh(C)          -3.859550360000    -1.777281980000     3.210934110000    12.000000000000
         N           19.444576300000    22.306868100000     3.398670180000    14.003074004430
         N           17.309953800000    22.448969460000     6.983458020000    14.003074004430
         H           15.176935950000    19.016206660000     6.483367970000     1.007825032230
         H           17.837149770000    18.842640010000     2.089372950000     1.007825032230
         H           19.895364310000    25.369152350000     5.947672820000     1.007825032230
         H           16.561935490000    23.128010940000     8.703832490000     1.007825032230
         C           16.588860000000    20.300193930000     5.763173580000    12.000000000000
         C           17.920487910000    20.229143250000     3.568603690000    12.000000000000
         C           19.011030440000    23.597960430000     5.492898380000    12.000000000000

  Charge       = 0
  Multiplicity = 1
  Basis Set: AUG-CC-PVDZ
    Blend: AUG-CC-PVDZ
  Basis Set: (AUG-CC-PVDZ AUX)
    Blend: AUG-CC-PVDZ-JKFIT

    Orbital Energies [Eh]
    ---------------------

    Doubly Occupied:

       1A    -15.637071     2A    -15.551216     3A    -11.300916
       4A    -11.263160     5A    -11.245653     6A     -1.352867
       7A     -1.169098     8A     -1.012098     9A     -0.824390
      10A     -0.803731    11A     -0.760666    12A     -0.610096
      13A     -0.603958    14A     -0.601922    15A     -0.570942
      16A     -0.435483    17A     -0.400464    18A     -0.320685

  @DF-RHF Final Energy:  -224.84369627859226

   => Energetics <=

    Nuclear Repulsion Energy =            164.0866959142762482
    One-Electron Energy =                -628.9319561402774070
    Two-Electron Energy =                 240.0015639474089255
    Total Energy =                       -224.8436962785922617

  Dipole Moment: [D]
     X:    -2.0431      Y:     0.4150      Z:     3.3867     Total:     3.9769

    SAPT Results
  --------------------------------------------------------------------------------------------------------
    Electrostatics                 -0.04649910 [mEh]      -0.02917862 [kcal/mol]      -0.12208336 [kJ/mol]
      Elst10,r                     -0.04649910 [mEh]      -0.02917862 [kcal/mol]      -0.12208336 [kJ/mol]

    Exchange                        0.00000000 [mEh]       0.00000000 [kcal/mol]       0.00000000 [kJ/mol]
      Exch10                        0.00000000 [mEh]       0.00000000 [kcal/mol]       0.00000000 [kJ/mol]
      Exch10(S^2)                   0.00000000 [mEh]       0.00000000 [kcal/mol]       0.00000000 [kJ/mol]

    Induction                      -0.00012219 [mEh]      -0.00007668 [kcal/mol]      -0.00032081 [kJ/mol]
      Ind20,r                      -0.00011702 [mEh]      -0.00007343 [kcal/mol]      -0.00030724 [kJ/mol]
      Exch-Ind20,r                  0.00000000 [mEh]       0.00000000 [kcal/mol]       0.00000000 [kJ/mol]
      delta HF,r (2)               -0.00000517 [mEh]      -0.00000324 [kcal/mol]      -0.00001357 [kJ/mol]

    Dispersion                     -0.00099276 [mEh]      -0.00062297 [kcal/mol]      -0.00260649 [kJ/mol]
      Disp20                       -0.00099276 [mEh]      -0.00062297 [kcal/mol]      -0.00260649 [kJ/mol]
      Exch-Disp20                   0.00000000 [mEh]       0.00000000 [kcal/mol]       0.00000000 [kJ/mol]
      Disp20 (SS)                  -0.00049638 [mEh]      -0.00031148 [kcal/mol]      -0.00130324 [kJ/mol]
      Disp20 (OS)                  -0.00049638 [mEh]      -0.00031148 [kcal/mol]      -0.00130324 [kJ/mol]
      Exch-Disp20 (SS)              0.00000000 [mEh]       0.00000000 [kcal/mol]       0.00000000 [kJ/mol]
      Exch-Disp20 (OS)              0.00000000 [mEh]       0.00000000 [kcal/mol]       0.00000000 [kJ/mol]

  Total HF                         -0.04662129 [mEh]      -0.02925530 [kcal/mol]      -0.12240417 [kJ/mol]
  Total SAPT0                      -0.04761405 [mEh]      -0.02987826 [kcal/mol]      -0.12501066 [kJ/mol]

  Special recipe for scaled SAPT0 (see Manual):
    Electrostatics sSAPT0          -0.04649910 [mEh]      -0.02917862 [kcal/mol]      -0.12208336 [kJ/mol]
    Exchange sSAPT0                 0.00000000 [mEh]       0.00000000 [kcal/mol]       0.00000000 [kJ/mol]
    Induction sSAPT0               -0.00012219 [mEh]      -0.00007668 [kcal/mol]      -0.00032081 [kJ/mol]
    Dispersion sSAPT0              -0.00099276 [mEh]      -0.00062297 [kcal/mol]      -0.00260649 [kJ/mol]
  Total sSAPT0                     -0.04761405 [mEh]      -0.02987826 [kcal/mol]      -0.12501066 [kJ/mol]
  --------------------------------------------------------------------------------------------------------

*** Psi4 exiting successfully. Buy a developer a beer!
