                               Psi4 1.4rc3

  ==> Input File <==

--------------------------------------------------------------------------
# PSI4 file produced by CrystaLattE

# Generated from:               imidazole.xyz
# Psithon input for N-mer:      2mer-0+363
# Number of atoms per monomer:  [9, 9]
# Number of replicas:           1
# COM priority:                 1.594353111467e-05
# Minimum COM separations:      21.025
# Separation priority:          2.580653022105e-05
# Minimum monomer separations:  17.907
# Cutoff priority:              7.626164249761e-07
# Nuclear repulsion energy:     360.74756549494134

memory 7 GB

molecule Dimer_0_363 {
  N           -4.29309621      -3.06837431       5.30516231
  N           -2.15847371      -2.92627296       1.72037448
  H           -0.02545587      -6.35903575       2.22046452
  H           -2.68566968      -6.53260241       6.61445954
  H           -4.74388423      -0.00609006       2.75615968
  H           -1.41045540      -2.24723147       0.00000000
  C           -1.43737991      -5.07504848       2.94065891
  C           -2.76900782      -5.14609916       5.13522880
  C           -3.85955036      -1.77728198       3.21093411
--
  N            0.63410893      34.42202384      11.49074204
  N           -1.50051357      34.27992248      15.07552988
  H           -3.63353142      37.71268527      14.57543984
  H           -0.97331761      37.88625193      10.18144482
  H            1.08489694      31.35973958      14.03974468
  H           -2.24853188      33.60088099      16.79590435
  C           -2.22160737      36.42869801      13.85524544
  C           -0.88997947      36.49974869      11.66067555
  C            0.20056307      33.13093150      13.58497024
units = au
no_com
no_reorient
}

set {
  e_convergence 10
  d_convergence 10
  scf_type df
  mp2_type df
  cc_type df
  freeze_core true
}

energy('sapt0/aug-cc-pvdz')

--------------------------------------------------------------------------

  //              Dimer HF             //
    Molecular point group: c1
  Charge       = 0
  Multiplicity = 1
  Basis Set: AUG-CC-PVDZ
    Blend: AUG-CC-PVDZ
  Basis Set: (AUG-CC-PVDZ AUX)
    Blend: AUG-CC-PVDZ-JKFIT
  @DF-RHF Final Energy:  -449.68743835924988
    Total Energy =                       -449.6874383592498816
  //            Monomer A HF           //
    Molecular point group: c1
  Multiplicity = 1
  Basis Set: AUG-CC-PVDZ
    Blend: AUG-CC-PVDZ
  Basis Set: (AUG-CC-PVDZ AUX)
    Blend: AUG-CC-PVDZ-JKFIT
  @DF-RHF Final Energy:  -224.84369627714142
    Total Energy =                       -224.8436962771414187
  //            Monomer B HF           //
    Molecular point group: c1

    Geometry (in Bohr), charge = 0, multiplicity = 1:

       Center              X                  Y                   Z               Mass
    ------------   -----------------  -----------------  -----------------  -----------------
      Gh(N)          -4.293096210000    -3.068374310000     5.305162310000    14.003074004430
      Gh(N)          -2.158473710000    -2.926272960000     1.720374480000    14.003074004430
      Gh(H)          -0.025455870000    -6.359035750000     2.220464520000     1.007825032230
      Gh(H)          -2.685669680000    -6.532602410000     6.614459540000     1.007825032230
      Gh(H)          -4.743884230000    -0.006090060000     2.756159680000     1.007825032230
      Gh(H)          -1.410455400000    -2.247231470000     0.000000000000     1.007825032230
      Gh(C)          -1.437379910000    -5.075048480000     2.940658910000    12.000000000000
      Gh(C)          -2.769007820000    -5.146099160000     5.135228800000    12.000000000000
      Gh(C)          -3.859550360000    -1.777281980000     3.210934110000    12.000000000000
         N            0.634108930000    34.422023840000    11.490742040000    14.003074004430
         N           -1.500513570000    34.279922480000    15.075529880000    14.003074004430
         H           -3.633531420000    37.712685270000    14.575439840000     1.007825032230
         H           -0.973317610000    37.886251930000    10.181444820000     1.007825032230
         H            1.084896940000    31.359739580000    14.039744680000     1.007825032230
         H           -2.248531880000    33.600880990000    16.795904350000     1.007825032230
         C           -2.221607370000    36.428698010000    13.855245440000    12.000000000000
         C           -0.889979470000    36.499748690000    11.660675550000    12.000000000000
         C            0.200563070000    33.130931500000    13.584970240000    12.000000000000

  Charge       = 0
  Multiplicity = 1
  Basis Set: AUG-CC-PVDZ
    Blend: AUG-CC-PVDZ
  Basis Set: (AUG-CC-PVDZ AUX)
    Blend: AUG-CC-PVDZ-JKFIT

    Orbital Energies [Eh]
    ---------------------

    Doubly Occupied:

       1A    -15.637071     2A    -15.551216     3A    -11.300916
       4A    -11.263160     5A    -11.245653     6A     -1.352867
       7A     -1.169098     8A     -1.012098     9A     -0.824390
      10A     -0.803731    11A     -0.760666    12A     -0.610096
      13A     -0.603958    14A     -0.601922    15A     -0.570942
      16A     -0.435483    17A     -0.400464    18A     -0.320685

  @DF-RHF Final Energy:  -224.84369627781683

   => Energetics <=

    Nuclear Repulsion Energy =            164.0866958085161968
    One-Electron Energy =                -628.9319559298737659
    Two-Electron Energy =                 240.0015638435407368
    Total Energy =                       -224.8436962778168322

  Dipole Moment: [D]
     X:    -2.0431      Y:    -0.4150      Z:     3.3867     Total:     3.9769

    SAPT Results
  --------------------------------------------------------------------------------------------------------
    Electrostatics                 -0.04576088 [mEh]      -0.02871539 [kcal/mol]      -0.12014518 [kJ/mol]
      Elst10,r                     -0.04576088 [mEh]      -0.02871539 [kcal/mol]      -0.12014518 [kJ/mol]

    Exchange                       -0.00000000 [mEh]      -0.00000000 [kcal/mol]      -0.00000000 [kJ/mol]
      Exch10                       -0.00000000 [mEh]      -0.00000000 [kcal/mol]      -0.00000000 [kJ/mol]
      Exch10(S^2)                  -0.00000000 [mEh]      -0.00000000 [kcal/mol]      -0.00000000 [kJ/mol]

    Induction                      -0.00004341 [mEh]      -0.00002724 [kcal/mol]      -0.00011397 [kJ/mol]
      Ind20,r                      -0.00003943 [mEh]      -0.00002474 [kcal/mol]      -0.00010351 [kJ/mol]
      Exch-Ind20,r                  0.00000000 [mEh]       0.00000000 [kcal/mol]       0.00000000 [kJ/mol]
      delta HF,r (2)               -0.00000398 [mEh]      -0.00000250 [kcal/mol]      -0.00001045 [kJ/mol]

    Dispersion                     -0.00030193 [mEh]      -0.00018946 [kcal/mol]      -0.00079272 [kJ/mol]
      Disp20                       -0.00030193 [mEh]      -0.00018946 [kcal/mol]      -0.00079272 [kJ/mol]
      Exch-Disp20                   0.00000000 [mEh]       0.00000000 [kcal/mol]       0.00000000 [kJ/mol]
      Disp20 (SS)                  -0.00015096 [mEh]      -0.00009473 [kcal/mol]      -0.00039636 [kJ/mol]
      Disp20 (OS)                  -0.00015096 [mEh]      -0.00009473 [kcal/mol]      -0.00039636 [kJ/mol]
      Exch-Disp20 (SS)              0.00000000 [mEh]       0.00000000 [kcal/mol]       0.00000000 [kJ/mol]
      Exch-Disp20 (OS)              0.00000000 [mEh]       0.00000000 [kcal/mol]       0.00000000 [kJ/mol]

  Total HF                         -0.04580429 [mEh]      -0.02874263 [kcal/mol]      -0.12025915 [kJ/mol]
  Total SAPT0                      -0.04610622 [mEh]      -0.02893209 [kcal/mol]      -0.12105187 [kJ/mol]

  Special recipe for scaled SAPT0 (see Manual):
    Electrostatics sSAPT0          -0.04576088 [mEh]      -0.02871539 [kcal/mol]      -0.12014518 [kJ/mol]
    Exchange sSAPT0                -0.00000000 [mEh]      -0.00000000 [kcal/mol]      -0.00000000 [kJ/mol]
    Induction sSAPT0               -0.00004341 [mEh]      -0.00002724 [kcal/mol]      -0.00011397 [kJ/mol]
    Dispersion sSAPT0              -0.00030193 [mEh]      -0.00018946 [kcal/mol]      -0.00079272 [kJ/mol]
  Total sSAPT0                     -0.04610622 [mEh]      -0.02893209 [kcal/mol]      -0.12105187 [kJ/mol]
  --------------------------------------------------------------------------------------------------------

*** Psi4 exiting successfully. Buy a developer a beer!
