                               Psi4 1.4rc3

  ==> Input File <==

--------------------------------------------------------------------------
# PSI4 file produced by CrystaLattE

# Generated from:               imidazole.xyz
# Psithon input for N-mer:      2mer-0+480
# Number of atoms per monomer:  [9, 9]
# Number of replicas:           2
# COM priority:                 2.130628834181e-05
# Minimum COM separations:      19.088
# Separation priority:          3.045070569173e-05
# Minimum monomer separations:  16.946
# Cutoff priority:              9.508889831266e-07
# Nuclear repulsion energy:     364.03650622491614

memory 7 GB

molecule Dimer_0_480 {
  N           -4.29309621      -3.06837431       5.30516231
  N           -2.15847371      -2.92627296       1.72037448
  H           -0.02545587      -6.35903575       2.22046452
  H           -2.68566968      -6.53260241       6.61445954
  H           -4.74388423      -0.00609006       2.75615968
  H           -1.41045540      -2.24723147       0.00000000
  C           -1.43737991      -5.07504848       2.94065891
  C           -2.76900782      -5.14609916       5.13522880
  C           -3.85955036      -1.77728198       3.21093411
--
  N          -32.50463988       2.00667417      19.58281390
  N          -34.63926238       2.14877553      23.16760174
  H          -36.77228022      -1.28398727      22.66751170
  H          -34.11206641      -1.45755392      18.27351668
  H          -32.05385186       5.06895842      22.13181654
  H          -35.38728068       2.82781701      24.88797622
  C          -35.36035617      -0.00000000      21.94731730
  C          -34.02872827      -0.07105068      19.75274741
  C          -32.93818573       3.29776650      21.67704210
units = au
no_com
no_reorient
}

set {
  e_convergence 10
  d_convergence 10
  scf_type df
  mp2_type df
  cc_type df
  freeze_core true
}

energy('sapt0/aug-cc-pvdz')

--------------------------------------------------------------------------

  //              Dimer HF             //
    Molecular point group: c1
  Charge       = 0
  Multiplicity = 1
  Basis Set: AUG-CC-PVDZ
    Blend: AUG-CC-PVDZ
  Basis Set: (AUG-CC-PVDZ AUX)
    Blend: AUG-CC-PVDZ-JKFIT
  @DF-RHF Final Energy:  -449.68731676631961
    Total Energy =                       -449.6873167663196682
  //            Monomer A HF           //
    Molecular point group: c1
  Multiplicity = 1
  Basis Set: AUG-CC-PVDZ
    Blend: AUG-CC-PVDZ
  Basis Set: (AUG-CC-PVDZ AUX)
    Blend: AUG-CC-PVDZ-JKFIT
  @DF-RHF Final Energy:  -224.84369627812021
    Total Energy =                       -224.8436962781202055
  //            Monomer B HF           //
    Molecular point group: c1

    Geometry (in Bohr), charge = 0, multiplicity = 1:

       Center              X                  Y                   Z               Mass
    ------------   -----------------  -----------------  -----------------  -----------------
      Gh(N)          -4.293096210000    -3.068374310000     5.305162310000    14.003074004430
      Gh(N)          -2.158473710000    -2.926272960000     1.720374480000    14.003074004430
      Gh(H)          -0.025455870000    -6.359035750000     2.220464520000     1.007825032230
      Gh(H)          -2.685669680000    -6.532602410000     6.614459540000     1.007825032230
      Gh(H)          -4.743884230000    -0.006090060000     2.756159680000     1.007825032230
      Gh(H)          -1.410455400000    -2.247231470000     0.000000000000     1.007825032230
      Gh(C)          -1.437379910000    -5.075048480000     2.940658910000    12.000000000000
      Gh(C)          -2.769007820000    -5.146099160000     5.135228800000    12.000000000000
      Gh(C)          -3.859550360000    -1.777281980000     3.210934110000    12.000000000000
         N          -32.504639880000     2.006674170000    19.582813900000    14.003074004430
         N          -34.639262380000     2.148775530000    23.167601740000    14.003074004430
         H          -36.772280220000    -1.283987270000    22.667511700000     1.007825032230
         H          -34.112066410000    -1.457553920000    18.273516680000     1.007825032230
         H          -32.053851860000     5.068958420000    22.131816540000     1.007825032230
         H          -35.387280680000     2.827817010000    24.887976220000     1.007825032230
         C          -35.360356170000     0.000000000000    21.947317300000    12.000000000000
         C          -34.028728270000    -0.071050680000    19.752747410000    12.000000000000
         C          -32.938185730000     3.297766500000    21.677042100000    12.000000000000

  Charge       = 0
  Multiplicity = 1
  Basis Set: AUG-CC-PVDZ
    Blend: AUG-CC-PVDZ
  Basis Set: (AUG-CC-PVDZ AUX)
    Blend: AUG-CC-PVDZ-JKFIT

    Orbital Energies [Eh]
    ---------------------

    Doubly Occupied:

       1A    -15.637071     2A    -15.551216     3A    -11.300916
       4A    -11.263160     5A    -11.245653     6A     -1.352867
       7A     -1.169098     8A     -1.012098     9A     -0.824390
      10A     -0.803731    11A     -0.760666    12A     -0.610096
      13A     -0.603958    14A     -0.601922    15A     -0.570942
      16A     -0.435483    17A     -0.400464    18A     -0.320685

  @DF-RHF Final Energy:  -224.84369627855713

   => Energetics <=

    Nuclear Repulsion Energy =            164.0866959345541432
    One-Electron Energy =                -628.9319561794641231
    Two-Electron Energy =                 240.0015639663528475
    Total Energy =                       -224.8436962785571325

  Dipole Moment: [D]
     X:    -2.0431      Y:     0.4150      Z:     3.3867     Total:     3.9769

    SAPT Results
  --------------------------------------------------------------------------------------------------------
    Electrostatics                  0.07595337 [mEh]       0.04766146 [kcal/mol]       0.19941555 [kJ/mol]
      Elst10,r                      0.07595337 [mEh]       0.04766146 [kcal/mol]       0.19941555 [kJ/mol]

    Exchange                        0.00000000 [mEh]       0.00000000 [kcal/mol]       0.00000000 [kJ/mol]
      Exch10                        0.00000000 [mEh]       0.00000000 [kcal/mol]       0.00000000 [kJ/mol]
      Exch10(S^2)                   0.00000000 [mEh]       0.00000000 [kcal/mol]       0.00000000 [kJ/mol]

    Induction                      -0.00016301 [mEh]      -0.00010229 [kcal/mol]      -0.00042799 [kJ/mol]
      Ind20,r                      -0.00018387 [mEh]      -0.00011538 [kcal/mol]      -0.00048275 [kJ/mol]
      Exch-Ind20,r                  0.00000000 [mEh]       0.00000000 [kcal/mol]       0.00000000 [kJ/mol]
      delta HF,r (2)                0.00002086 [mEh]       0.00001309 [kcal/mol]       0.00005476 [kJ/mol]

    Dispersion                     -0.00059400 [mEh]      -0.00037274 [kcal/mol]      -0.00155954 [kJ/mol]
      Disp20                       -0.00059400 [mEh]      -0.00037274 [kcal/mol]      -0.00155954 [kJ/mol]
      Exch-Disp20                   0.00000000 [mEh]       0.00000000 [kcal/mol]       0.00000000 [kJ/mol]
      Disp20 (SS)                  -0.00029700 [mEh]      -0.00018637 [kcal/mol]      -0.00077977 [kJ/mol]
      Disp20 (OS)                  -0.00029700 [mEh]      -0.00018637 [kcal/mol]      -0.00077977 [kJ/mol]
      Exch-Disp20 (SS)              0.00000000 [mEh]       0.00000000 [kcal/mol]       0.00000000 [kJ/mol]
      Exch-Disp20 (OS)              0.00000000 [mEh]       0.00000000 [kcal/mol]       0.00000000 [kJ/mol]

  Total HF                          0.07579036 [mEh]       0.04755917 [kcal/mol]       0.19898756 [kJ/mol]
  Total SAPT0                       0.07519636 [mEh]       0.04718643 [kcal/mol]       0.19742802 [kJ/mol]

  Special recipe for scaled SAPT0 (see Manual):
    Electrostatics sSAPT0           0.07595337 [mEh]       0.04766146 [kcal/mol]       0.19941555 [kJ/mol]
    Exchange sSAPT0                 0.00000000 [mEh]       0.00000000 [kcal/mol]       0.00000000 [kJ/mol]
    Induction sSAPT0               -0.00016301 [mEh]      -0.00010229 [kcal/mol]      -0.00042799 [kJ/mol]
    Dispersion sSAPT0              -0.00059400 [mEh]      -0.00037274 [kcal/mol]      -0.00155954 [kJ/mol]
  Total sSAPT0                      0.07519636 [mEh]       0.04718643 [kcal/mol]       0.19742802 [kJ/mol]
  --------------------------------------------------------------------------------------------------------

*** Psi4 exiting successfully. Buy a developer a beer!
