                               Psi4 1.4rc3

  ==> Input File <==

--------------------------------------------------------------------------
# PSI4 file produced by CrystaLattE

# Generated from:               imidazole.xyz
# Psithon input for N-mer:      2mer-0+155
# Number of atoms per monomer:  [9, 9]
# Number of replicas:           1
# COM priority:                 6.840477057751e-05
# Minimum COM separations:      12.939
# Separation priority:          2.053477959140e-04
# Minimum monomer separations:  8.970
# Cutoff priority:              1.211490634073e-05
# Nuclear repulsion energy:     381.42668197220064

memory 7 GB

molecule Dimer_0_155 {
  N           -4.29309621      -3.06837431       5.30516231
  N           -2.15847371      -2.92627296       1.72037448
  H           -0.02545587      -6.35903575       2.22046452
  H           -2.68566968      -6.53260241       6.61445954
  H           -4.74388423      -0.00609006       2.75615968
  H           -1.41045540      -2.24723147       0.00000000
  C           -1.43737991      -5.07504848       2.94065891
  C           -2.76900782      -5.14609916       5.13522880
  C           -3.85955036      -1.77728198       3.21093411
--
  N            0.63410893     -26.47855795      11.49074204
  N           -1.50051357     -26.62065931      15.07552988
  H           -3.63353142     -23.18789652      14.57543984
  H           -0.97331761     -23.01432986      10.18144482
  H            1.08489694     -29.54084221      14.03974468
  H           -2.24853188     -27.29970080      16.79590435
  C           -2.22160737     -24.47188378      13.85524544
  C           -0.88997947     -24.40083310      11.66067555
  C            0.20056307     -27.76965029      13.58497024
units = au
no_com
no_reorient
}

set {
  e_convergence 10
  d_convergence 10
  scf_type df
  mp2_type df
  cc_type df
  freeze_core true
}

energy('sapt0/aug-cc-pvdz')

--------------------------------------------------------------------------

  //              Dimer HF             //
    Molecular point group: c1
  Charge       = 0
  Multiplicity = 1
  Basis Set: AUG-CC-PVDZ
    Blend: AUG-CC-PVDZ
  Basis Set: (AUG-CC-PVDZ AUX)
    Blend: AUG-CC-PVDZ-JKFIT
  @DF-RHF Final Energy:  -449.68748954842113
    Total Energy =                       -449.6874895484211265
  //            Monomer A HF           //
    Molecular point group: c1
  Multiplicity = 1
  Basis Set: AUG-CC-PVDZ
    Blend: AUG-CC-PVDZ
  Basis Set: (AUG-CC-PVDZ AUX)
    Blend: AUG-CC-PVDZ-JKFIT
  @DF-RHF Final Energy:  -224.84369725886575
    Total Energy =                       -224.8436972588657454
  //            Monomer B HF           //
    Molecular point group: c1

    Geometry (in Bohr), charge = 0, multiplicity = 1:

       Center              X                  Y                   Z               Mass
    ------------   -----------------  -----------------  -----------------  -----------------
      Gh(N)          -4.293096210000    -3.068374310000     5.305162310000    14.003074004430
      Gh(N)          -2.158473710000    -2.926272960000     1.720374480000    14.003074004430
      Gh(H)          -0.025455870000    -6.359035750000     2.220464520000     1.007825032230
      Gh(H)          -2.685669680000    -6.532602410000     6.614459540000     1.007825032230
      Gh(H)          -4.743884230000    -0.006090060000     2.756159680000     1.007825032230
      Gh(H)          -1.410455400000    -2.247231470000     0.000000000000     1.007825032230
      Gh(C)          -1.437379910000    -5.075048480000     2.940658910000    12.000000000000
      Gh(C)          -2.769007820000    -5.146099160000     5.135228800000    12.000000000000
      Gh(C)          -3.859550360000    -1.777281980000     3.210934110000    12.000000000000
         N            0.634108930000   -26.478557950000    11.490742040000    14.003074004430
         N           -1.500513570000   -26.620659310000    15.075529880000    14.003074004430
         H           -3.633531420000   -23.187896520000    14.575439840000     1.007825032230
         H           -0.973317610000   -23.014329860000    10.181444820000     1.007825032230
         H            1.084896940000   -29.540842210000    14.039744680000     1.007825032230
         H           -2.248531880000   -27.299700800000    16.795904350000     1.007825032230
         C           -2.221607370000   -24.471883780000    13.855245440000    12.000000000000
         C           -0.889979470000   -24.400833100000    11.660675550000    12.000000000000
         C            0.200563070000   -27.769650290000    13.584970240000    12.000000000000

  Charge       = 0
  Multiplicity = 1
  Basis Set: AUG-CC-PVDZ
    Blend: AUG-CC-PVDZ
  Basis Set: (AUG-CC-PVDZ AUX)
    Blend: AUG-CC-PVDZ-JKFIT

    Orbital Energies [Eh]
    ---------------------

    Doubly Occupied:

       1A    -15.637071     2A    -15.551216     3A    -11.300917
       4A    -11.263159     5A    -11.245652     6A     -1.352867
       7A     -1.169098     8A     -1.012098     9A     -0.824390
      10A     -0.803731    11A     -0.760666    12A     -0.610096
      13A     -0.603958    14A     -0.601922    15A     -0.570942
      16A     -0.435483    17A     -0.400464    18A     -0.320685

  @DF-RHF Final Energy:  -224.84369725953013

   => Energetics <=

    Nuclear Repulsion Energy =            164.0866958085160832
    One-Electron Energy =                -628.9319617114823586
    Two-Electron Energy =                 240.0015686434361442
    Total Energy =                       -224.8436972595301313

  Dipole Moment: [D]
     X:    -2.0431      Y:    -0.4150      Z:     3.3867     Total:     3.9769

    SAPT Results
  --------------------------------------------------------------------------------------------------------
    Electrostatics                 -0.09455822 [mEh]      -0.05933618 [kcal/mol]      -0.24826256 [kJ/mol]
      Elst10,r                     -0.09455822 [mEh]      -0.05933618 [kcal/mol]      -0.24826256 [kJ/mol]

    Exchange                        0.00000186 [mEh]       0.00000117 [kcal/mol]       0.00000488 [kJ/mol]
      Exch10                        0.00000186 [mEh]       0.00000117 [kcal/mol]       0.00000488 [kJ/mol]
      Exch10(S^2)                   0.00000186 [mEh]       0.00000117 [kcal/mol]       0.00000488 [kJ/mol]

    Induction                      -0.00047367 [mEh]      -0.00029723 [kcal/mol]      -0.00124361 [kJ/mol]
      Ind20,r                      -0.00051087 [mEh]      -0.00032057 [kcal/mol]      -0.00134128 [kJ/mol]
      Exch-Ind20,r                  0.00000259 [mEh]       0.00000163 [kcal/mol]       0.00000680 [kJ/mol]
      delta HF,r (2)                0.00003461 [mEh]       0.00002172 [kcal/mol]       0.00009086 [kJ/mol]

    Dispersion                     -0.00793996 [mEh]      -0.00498240 [kcal/mol]      -0.02084637 [kJ/mol]
      Disp20                       -0.00794008 [mEh]      -0.00498248 [kcal/mol]      -0.02084668 [kJ/mol]
      Exch-Disp20                   0.00000012 [mEh]       0.00000007 [kcal/mol]       0.00000031 [kJ/mol]
      Disp20 (SS)                  -0.00397004 [mEh]      -0.00249124 [kcal/mol]      -0.01042334 [kJ/mol]
      Disp20 (OS)                  -0.00397004 [mEh]      -0.00249124 [kcal/mol]      -0.01042334 [kJ/mol]
      Exch-Disp20 (SS)              0.00000009 [mEh]       0.00000006 [kcal/mol]       0.00000024 [kJ/mol]
      Exch-Disp20 (OS)              0.00000003 [mEh]       0.00000002 [kcal/mol]       0.00000007 [kJ/mol]

  Total HF                         -0.09503003 [mEh]      -0.05963224 [kcal/mol]      -0.24950130 [kJ/mol]
  Total SAPT0                      -0.10296999 [mEh]      -0.06461464 [kcal/mol]      -0.27034767 [kJ/mol]

  Special recipe for scaled SAPT0 (see Manual):
    Electrostatics sSAPT0          -0.09455822 [mEh]      -0.05933618 [kcal/mol]      -0.24826256 [kJ/mol]
    Exchange sSAPT0                 0.00000186 [mEh]       0.00000117 [kcal/mol]       0.00000488 [kJ/mol]
    Induction sSAPT0               -0.00047367 [mEh]      -0.00029723 [kcal/mol]      -0.00124361 [kJ/mol]
    Dispersion sSAPT0              -0.00793996 [mEh]      -0.00498240 [kcal/mol]      -0.02084637 [kJ/mol]
  Total sSAPT0                     -0.10296999 [mEh]      -0.06461464 [kcal/mol]      -0.27034767 [kJ/mol]
  --------------------------------------------------------------------------------------------------------

*** Psi4 exiting successfully. Buy a developer a beer!
