                               Psi4 1.4rc3

  ==> Input File <==

--------------------------------------------------------------------------
# PSI4 file produced by CrystaLattE

# Generated from:               imidazole.xyz
# Psithon input for N-mer:      2mer-0+173
# Number of atoms per monomer:  [9, 9]
# Number of replicas:           1
# COM priority:                 4.930432338834e-05
# Minimum COM separations:      14.431
# Separation priority:          6.832306193984e-05
# Minimum monomer separations:  12.944
# Cutoff priority:              2.793121075016e-06
# Nuclear repulsion energy:     375.56033486966726

memory 7 GB

molecule Dimer_0_173 {
  N           -4.29309621      -3.06837431       5.30516231
  N           -2.15847371      -2.92627296       1.72037448
  H           -0.02545587      -6.35903575       2.22046452
  H           -2.68566968      -6.53260241       6.61445954
  H           -4.74388423      -0.00609006       2.75615968
  H           -1.41045540      -2.24723147       0.00000000
  C           -1.43737991      -5.07504848       2.94065891
  C           -2.76900782      -5.14609916       5.13522880
  C           -3.85955036      -1.77728198       3.21093411
--
  N          -10.09371015     -16.32846099     -20.87754540
  N          -12.22833266     -16.47056235     -17.29275757
  H          -14.36135050     -13.03779955     -17.79284761
  H          -11.70113669     -12.86423289     -22.18684263
  H           -9.64292214     -19.39074524     -18.32854276
  H          -12.97635096     -17.14960383     -15.57238309
  C          -12.94942645     -14.32178682     -18.51304200
  C          -11.61779855     -14.25073614     -20.70761189
  C          -10.52725601     -17.61955332     -18.78331720
units = au
no_com
no_reorient
}

set {
  e_convergence 10
  d_convergence 10
  scf_type df
  mp2_type df
  cc_type df
  freeze_core true
}

energy('sapt0/aug-cc-pvdz')

--------------------------------------------------------------------------

  //              Dimer HF             //
    Molecular point group: c1
  Charge       = 0
  Multiplicity = 1
  Basis Set: AUG-CC-PVDZ
    Blend: AUG-CC-PVDZ
  Basis Set: (AUG-CC-PVDZ AUX)
    Blend: AUG-CC-PVDZ-JKFIT
  @DF-RHF Final Energy:  -449.68747543959034
    Total Energy =                       -449.6874754395903437
  //            Monomer A HF           //
    Molecular point group: c1
  Multiplicity = 1
  Basis Set: AUG-CC-PVDZ
    Blend: AUG-CC-PVDZ
  Basis Set: (AUG-CC-PVDZ AUX)
    Blend: AUG-CC-PVDZ-JKFIT
  @DF-RHF Final Energy:  -224.84369628150685
    Total Energy =                       -224.8436962815068512
  //            Monomer B HF           //
    Molecular point group: c1

    Geometry (in Bohr), charge = 0, multiplicity = 1:

       Center              X                  Y                   Z               Mass
    ------------   -----------------  -----------------  -----------------  -----------------
      Gh(N)          -4.293096210000    -3.068374310000     5.305162310000    14.003074004430
      Gh(N)          -2.158473710000    -2.926272960000     1.720374480000    14.003074004430
      Gh(H)          -0.025455870000    -6.359035750000     2.220464520000     1.007825032230
      Gh(H)          -2.685669680000    -6.532602410000     6.614459540000     1.007825032230
      Gh(H)          -4.743884230000    -0.006090060000     2.756159680000     1.007825032230
      Gh(H)          -1.410455400000    -2.247231470000     0.000000000000     1.007825032230
      Gh(C)          -1.437379910000    -5.075048480000     2.940658910000    12.000000000000
      Gh(C)          -2.769007820000    -5.146099160000     5.135228800000    12.000000000000
      Gh(C)          -3.859550360000    -1.777281980000     3.210934110000    12.000000000000
         N          -10.093710150000   -16.328460990000   -20.877545400000    14.003074004430
         N          -12.228332660000   -16.470562350000   -17.292757570000    14.003074004430
         H          -14.361350500000   -13.037799550000   -17.792847610000     1.007825032230
         H          -11.701136690000   -12.864232890000   -22.186842630000     1.007825032230
         H           -9.642922140000   -19.390745240000   -18.328542760000     1.007825032230
         H          -12.976350960000   -17.149603830000   -15.572383090000     1.007825032230
         C          -12.949426450000   -14.321786820000   -18.513042000000    12.000000000000
         C          -11.617798550000   -14.250736140000   -20.707611890000    12.000000000000
         C          -10.527256010000   -17.619553320000   -18.783317200000    12.000000000000

  Charge       = 0
  Multiplicity = 1
  Basis Set: AUG-CC-PVDZ
    Blend: AUG-CC-PVDZ
  Basis Set: (AUG-CC-PVDZ AUX)
    Blend: AUG-CC-PVDZ-JKFIT

    Orbital Energies [Eh]
    ---------------------

    Doubly Occupied:

       1A    -15.637071     2A    -15.551216     3A    -11.300916
       4A    -11.263160     5A    -11.245653     6A     -1.352867
       7A     -1.169098     8A     -1.012098     9A     -0.824390
      10A     -0.803731    11A     -0.760666    12A     -0.610096
      13A     -0.603958    14A     -0.601922    15A     -0.570942
      16A     -0.435483    17A     -0.400464    18A     -0.320685

  @DF-RHF Final Energy:  -224.84369628226563

   => Energetics <=

    Nuclear Repulsion Energy =            164.0866959498159190
    One-Electron Energy =                -628.9319562323187256
    Two-Electron Energy =                 240.0015640002371811
    Total Energy =                       -224.8436962822656255

  Dipole Moment: [D]
     X:    -2.0431      Y:    -0.4150      Z:     3.3867     Total:     3.9769

    SAPT Results
  --------------------------------------------------------------------------------------------------------
    Electrostatics                 -0.08253854 [mEh]      -0.05179371 [kcal/mol]      -0.21670490 [kJ/mol]
      Elst10,r                     -0.08253854 [mEh]      -0.05179371 [kcal/mol]      -0.21670490 [kJ/mol]

    Exchange                        0.00000000 [mEh]       0.00000000 [kcal/mol]       0.00000000 [kJ/mol]
      Exch10                        0.00000000 [mEh]       0.00000000 [kcal/mol]       0.00000000 [kJ/mol]
      Exch10(S^2)                   0.00000000 [mEh]       0.00000000 [kcal/mol]       0.00000000 [kJ/mol]

    Induction                      -0.00033728 [mEh]      -0.00021165 [kcal/mol]      -0.00088554 [kJ/mol]
      Ind20,r                      -0.00032361 [mEh]      -0.00020307 [kcal/mol]      -0.00084965 [kJ/mol]
      Exch-Ind20,r                  0.00000000 [mEh]       0.00000000 [kcal/mol]       0.00000000 [kJ/mol]
      delta HF,r (2)               -0.00001367 [mEh]      -0.00000858 [kcal/mol]      -0.00003589 [kJ/mol]

    Dispersion                     -0.00268961 [mEh]      -0.00168776 [kcal/mol]      -0.00706157 [kJ/mol]
      Disp20                       -0.00268961 [mEh]      -0.00168776 [kcal/mol]      -0.00706157 [kJ/mol]
      Exch-Disp20                   0.00000000 [mEh]       0.00000000 [kcal/mol]       0.00000000 [kJ/mol]
      Disp20 (SS)                  -0.00134480 [mEh]      -0.00084388 [kcal/mol]      -0.00353078 [kJ/mol]
      Disp20 (OS)                  -0.00134480 [mEh]      -0.00084388 [kcal/mol]      -0.00353078 [kJ/mol]
      Exch-Disp20 (SS)              0.00000000 [mEh]       0.00000000 [kcal/mol]       0.00000000 [kJ/mol]
      Exch-Disp20 (OS)              0.00000000 [mEh]       0.00000000 [kcal/mol]       0.00000000 [kJ/mol]

  Total HF                         -0.08287582 [mEh]      -0.05200536 [kcal/mol]      -0.21759043 [kJ/mol]
  Total SAPT0                      -0.08556543 [mEh]      -0.05369312 [kcal/mol]      -0.22465200 [kJ/mol]

  Special recipe for scaled SAPT0 (see Manual):
    Electrostatics sSAPT0          -0.08253854 [mEh]      -0.05179371 [kcal/mol]      -0.21670490 [kJ/mol]
    Exchange sSAPT0                 0.00000000 [mEh]       0.00000000 [kcal/mol]       0.00000000 [kJ/mol]
    Induction sSAPT0               -0.00033728 [mEh]      -0.00021165 [kcal/mol]      -0.00088554 [kJ/mol]
    Dispersion sSAPT0              -0.00268961 [mEh]      -0.00168776 [kcal/mol]      -0.00706157 [kJ/mol]
  Total sSAPT0                     -0.08556543 [mEh]      -0.05369312 [kcal/mol]      -0.22465200 [kJ/mol]
  --------------------------------------------------------------------------------------------------------

*** Psi4 exiting successfully. Buy a developer a beer!
