                               Psi4 1.4rc3

  ==> Input File <==

--------------------------------------------------------------------------
# PSI4 file produced by CrystaLattE

# Generated from:               imidazole.xyz
# Psithon input for N-mer:      2mer-0+88
# Number of atoms per monomer:  [9, 9]
# Number of replicas:           1
# COM priority:                 1.480317021680e-04
# Minimum COM separations:      10.003
# Separation priority:          1.939130735290e-04
# Minimum monomer separations:  9.143
# Cutoff priority:              1.122387410430e-05
# Nuclear repulsion energy:     395.7836480883839

memory 7 GB

molecule Dimer_0_88 {
  N           -4.29309621      -3.06837431       5.30516231
  N           -2.15847371      -2.92627296       1.72037448
  H           -0.02545587      -6.35903575       2.22046452
  H           -2.68566968      -6.53260241       6.61445954
  H           -4.74388423      -0.00609006       2.75615968
  H           -1.41045540      -2.24723147       0.00000000
  C           -1.43737991      -5.07504848       2.94065891
  C           -2.76900782      -5.14609916       5.13522880
  C           -3.85955036      -1.77728198       3.21093411
--
  N          -19.05808204      -6.17836402      -4.69340168
  N          -21.19270454      -6.32046538      -1.10861384
  H          -23.32572239      -2.88770259      -1.60870389
  H          -20.66550857      -2.71413593      -6.00269891
  H          -18.60729403      -9.24064828      -2.14439904
  H          -21.94072285      -6.99950687       0.61176063
  C          -21.91379834      -4.17168985      -2.32889828
  C          -20.58217043      -4.10063917      -4.52346817
  C          -19.49162790      -7.46945636      -2.59917348
units = au
no_com
no_reorient
}

set {
  e_convergence 10
  d_convergence 10
  scf_type df
  mp2_type df
  cc_type df
  freeze_core true
}

energy('sapt0/aug-cc-pvdz')

--------------------------------------------------------------------------

  //              Dimer HF             //
    Molecular point group: c1
  Charge       = 0
  Multiplicity = 1
  Basis Set: AUG-CC-PVDZ
    Blend: AUG-CC-PVDZ
  Basis Set: (AUG-CC-PVDZ AUX)
    Blend: AUG-CC-PVDZ-JKFIT
  @DF-RHF Final Energy:  -449.68766351952701
    Total Energy =                       -449.6876635195269500
  //            Monomer A HF           //
    Molecular point group: c1
  Multiplicity = 1
  Basis Set: AUG-CC-PVDZ
    Blend: AUG-CC-PVDZ
  Basis Set: (AUG-CC-PVDZ AUX)
    Blend: AUG-CC-PVDZ-JKFIT
  @DF-RHF Final Energy:  -224.84369799767578
    Total Energy =                       -224.8436979976757755
  //            Monomer B HF           //
    Molecular point group: c1

    Geometry (in Bohr), charge = 0, multiplicity = 1:

       Center              X                  Y                   Z               Mass
    ------------   -----------------  -----------------  -----------------  -----------------
      Gh(N)          -4.293096210000    -3.068374310000     5.305162310000    14.003074004430
      Gh(N)          -2.158473710000    -2.926272960000     1.720374480000    14.003074004430
      Gh(H)          -0.025455870000    -6.359035750000     2.220464520000     1.007825032230
      Gh(H)          -2.685669680000    -6.532602410000     6.614459540000     1.007825032230
      Gh(H)          -4.743884230000    -0.006090060000     2.756159680000     1.007825032230
      Gh(H)          -1.410455400000    -2.247231470000     0.000000000000     1.007825032230
      Gh(C)          -1.437379910000    -5.075048480000     2.940658910000    12.000000000000
      Gh(C)          -2.769007820000    -5.146099160000     5.135228800000    12.000000000000
      Gh(C)          -3.859550360000    -1.777281980000     3.210934110000    12.000000000000
         N          -19.058082040000    -6.178364020000    -4.693401680000    14.003074004430
         N          -21.192704540000    -6.320465380000    -1.108613840000    14.003074004430
         H          -23.325722390000    -2.887702590000    -1.608703890000     1.007825032230
         H          -20.665508570000    -2.714135930000    -6.002698910000     1.007825032230
         H          -18.607294030000    -9.240648280000    -2.144399040000     1.007825032230
         H          -21.940722850000    -6.999506870000     0.611760630000     1.007825032230
         C          -21.913798340000    -4.171689850000    -2.328898280000    12.000000000000
         C          -20.582170430000    -4.100639170000    -4.523468170000    12.000000000000
         C          -19.491627900000    -7.469456360000    -2.599173480000    12.000000000000

  Charge       = 0
  Multiplicity = 1
  Basis Set: AUG-CC-PVDZ
    Blend: AUG-CC-PVDZ
  Basis Set: (AUG-CC-PVDZ AUX)
    Blend: AUG-CC-PVDZ-JKFIT

    Orbital Energies [Eh]
    ---------------------

    Doubly Occupied:

       1A    -15.637071     2A    -15.551216     3A    -11.300916
       4A    -11.263160     5A    -11.245652     6A     -1.352866
       7A     -1.169098     8A     -1.012098     9A     -0.824389
      10A     -0.803731    11A     -0.760666    12A     -0.610096
      13A     -0.603958    14A     -0.601922    15A     -0.570942
      16A     -0.435483    17A     -0.400465    18A     -0.320685

  @DF-RHF Final Energy:  -224.84369799779233

   => Energetics <=

    Nuclear Repulsion Energy =            164.0866958084465352
    One-Electron Energy =                -628.9319616296879758
    Two-Electron Energy =                 240.0015678234491361
    Total Energy =                       -224.8436979977923329

  Dipole Moment: [D]
     X:    -2.0430      Y:    -0.4150      Z:     3.3867     Total:     3.9769

    SAPT Results
  --------------------------------------------------------------------------------------------------------
    Electrostatics                 -0.26391451 [mEh]      -0.16560886 [kcal/mol]      -0.69290746 [kJ/mol]
      Elst10,r                     -0.26391451 [mEh]      -0.16560886 [kcal/mol]      -0.69290746 [kJ/mol]

    Exchange                       -0.00000008 [mEh]      -0.00000005 [kcal/mol]      -0.00000022 [kJ/mol]
      Exch10                       -0.00000008 [mEh]      -0.00000005 [kcal/mol]      -0.00000022 [kJ/mol]
      Exch10(S^2)                  -0.00000008 [mEh]      -0.00000005 [kcal/mol]      -0.00000022 [kJ/mol]

    Induction                      -0.00360946 [mEh]      -0.00226497 [kcal/mol]      -0.00947664 [kJ/mol]
      Ind20,r                      -0.00356302 [mEh]      -0.00223583 [kcal/mol]      -0.00935472 [kJ/mol]
      Exch-Ind20,r                  0.00000247 [mEh]       0.00000155 [kcal/mol]       0.00000647 [kJ/mol]
      delta HF,r (2)               -0.00004890 [mEh]      -0.00003069 [kcal/mol]      -0.00012840 [kJ/mol]

    Dispersion                     -0.02303292 [mEh]      -0.01445337 [kcal/mol]      -0.06047292 [kJ/mol]
      Disp20                       -0.02303334 [mEh]      -0.01445364 [kcal/mol]      -0.06047403 [kJ/mol]
      Exch-Disp20                   0.00000042 [mEh]       0.00000027 [kcal/mol]       0.00000111 [kJ/mol]
      Disp20 (SS)                  -0.01151667 [mEh]      -0.00722682 [kcal/mol]      -0.03023702 [kJ/mol]
      Disp20 (OS)                  -0.01151667 [mEh]      -0.00722682 [kcal/mol]      -0.03023702 [kJ/mol]
      Exch-Disp20 (SS)              0.00000036 [mEh]       0.00000022 [kcal/mol]       0.00000094 [kJ/mol]
      Exch-Disp20 (OS)              0.00000007 [mEh]       0.00000004 [kcal/mol]       0.00000018 [kJ/mol]

  Total HF                         -0.26752406 [mEh]      -0.16787388 [kcal/mol]      -0.70238432 [kJ/mol]
  Total SAPT0                      -0.29055698 [mEh]      -0.18232726 [kcal/mol]      -0.76285724 [kJ/mol]

  Special recipe for scaled SAPT0 (see Manual):
    Electrostatics sSAPT0          -0.26391451 [mEh]      -0.16560886 [kcal/mol]      -0.69290746 [kJ/mol]
    Exchange sSAPT0                -0.00000008 [mEh]      -0.00000005 [kcal/mol]      -0.00000022 [kJ/mol]
    Induction sSAPT0               -0.00360946 [mEh]      -0.00226497 [kcal/mol]      -0.00947664 [kJ/mol]
    Dispersion sSAPT0              -0.02303292 [mEh]      -0.01445337 [kcal/mol]      -0.06047292 [kJ/mol]
  Total sSAPT0                     -0.29055698 [mEh]      -0.18232726 [kcal/mol]      -0.76285724 [kJ/mol]
  --------------------------------------------------------------------------------------------------------

*** Psi4 exiting successfully. Buy a developer a beer!
