                               Psi4 1.4rc3

  ==> Input File <==

--------------------------------------------------------------------------
# PSI4 file produced by CrystaLattE

# Generated from:               imidazole.xyz
# Psithon input for N-mer:      2mer-0+366
# Number of atoms per monomer:  [9, 9]
# Number of replicas:           2
# COM priority:                 2.464338407792e-05
# Minimum COM separations:      18.184
# Separation priority:          4.356135111119e-05
# Minimum monomer separations:  15.040
# Cutoff priority:              1.532739872832e-06
# Nuclear repulsion energy:     365.82998355343005

memory 7 GB

molecule Dimer_0_366 {
  N           -4.29309621      -3.06837431       5.30516231
  N           -2.15847371      -2.92627296       1.72037448
  H           -0.02545587      -6.35903575       2.22046452
  H           -2.68566968      -6.53260241       6.61445954
  H           -4.74388423      -0.00609006       2.75615968
  H           -1.41045540      -2.24723147       0.00000000
  C           -1.43737991      -5.07504848       2.94065891
  C           -2.76900782      -5.14609916       5.13522880
  C           -3.85955036      -1.77728198       3.21093411
--
  N            1.51583252       2.00667417      35.76695762
  N           -0.61878998       2.14877553      39.35174546
  H           -2.75180782      -1.28398727      38.85165542
  H           -0.09159401      -1.45755392      34.45766040
  H            1.96662053       5.06895842      38.31596026
  H           -1.36680829       2.82781701      41.07211994
  C           -1.33988378      -0.00000000      38.13146102
  C           -0.00825587      -0.07105068      35.93689113
  C            1.08228667       3.29776650      37.86118582
units = au
no_com
no_reorient
}

set {
  e_convergence 10
  d_convergence 10
  scf_type df
  mp2_type df
  cc_type df
  freeze_core true
}

energy('sapt0/aug-cc-pvdz')

--------------------------------------------------------------------------

  //              Dimer HF             //
    Molecular point group: c1
  Charge       = 0
  Multiplicity = 1
  Basis Set: AUG-CC-PVDZ
    Blend: AUG-CC-PVDZ
  Basis Set: (AUG-CC-PVDZ AUX)
    Blend: AUG-CC-PVDZ-JKFIT
  @DF-RHF Final Energy:  -449.68734164687709
    Total Energy =                       -449.6873416468770301
  //            Monomer A HF           //
    Molecular point group: c1
  Multiplicity = 1
  Basis Set: AUG-CC-PVDZ
    Blend: AUG-CC-PVDZ
  Basis Set: (AUG-CC-PVDZ AUX)
    Blend: AUG-CC-PVDZ-JKFIT
  @DF-RHF Final Energy:  -224.84369627803841
    Total Energy =                       -224.8436962780384079
  //            Monomer B HF           //
    Molecular point group: c1

    Geometry (in Bohr), charge = 0, multiplicity = 1:

       Center              X                  Y                   Z               Mass
    ------------   -----------------  -----------------  -----------------  -----------------
      Gh(N)          -4.293096210000    -3.068374310000     5.305162310000    14.003074004430
      Gh(N)          -2.158473710000    -2.926272960000     1.720374480000    14.003074004430
      Gh(H)          -0.025455870000    -6.359035750000     2.220464520000     1.007825032230
      Gh(H)          -2.685669680000    -6.532602410000     6.614459540000     1.007825032230
      Gh(H)          -4.743884230000    -0.006090060000     2.756159680000     1.007825032230
      Gh(H)          -1.410455400000    -2.247231470000     0.000000000000     1.007825032230
      Gh(C)          -1.437379910000    -5.075048480000     2.940658910000    12.000000000000
      Gh(C)          -2.769007820000    -5.146099160000     5.135228800000    12.000000000000
      Gh(C)          -3.859550360000    -1.777281980000     3.210934110000    12.000000000000
         N            1.515832520000     2.006674170000    35.766957620000    14.003074004430
         N           -0.618789980000     2.148775530000    39.351745460000    14.003074004430
         H           -2.751807820000    -1.283987270000    38.851655420000     1.007825032230
         H           -0.091594010000    -1.457553920000    34.457660400000     1.007825032230
         H            1.966620530000     5.068958420000    38.315960260000     1.007825032230
         H           -1.366808290000     2.827817010000    41.072119940000     1.007825032230
         C           -1.339883780000     0.000000000000    38.131461020000    12.000000000000
         C           -0.008255870000    -0.071050680000    35.936891130000    12.000000000000
         C            1.082286670000     3.297766500000    37.861185820000    12.000000000000

  Charge       = 0
  Multiplicity = 1
  Basis Set: AUG-CC-PVDZ
    Blend: AUG-CC-PVDZ
  Basis Set: (AUG-CC-PVDZ AUX)
    Blend: AUG-CC-PVDZ-JKFIT

    Orbital Energies [Eh]
    ---------------------

    Doubly Occupied:

       1A    -15.637071     2A    -15.551216     3A    -11.300916
       4A    -11.263160     5A    -11.245653     6A     -1.352867
       7A     -1.169098     8A     -1.012098     9A     -0.824390
      10A     -0.803731    11A     -0.760666    12A     -0.610096
      13A     -0.603958    14A     -0.601922    15A     -0.570942
      16A     -0.435483    17A     -0.400464    18A     -0.320685

  @DF-RHF Final Energy:  -224.84369627816270

   => Energetics <=

    Nuclear Repulsion Energy =            164.0866958690804438
    One-Electron Energy =                -628.9319560495168844
    Two-Electron Energy =                 240.0015639022737162
    Total Energy =                       -224.8436962781626960

  Dipole Moment: [D]
     X:    -2.0431      Y:     0.4150      Z:     3.3867     Total:     3.9769

    SAPT Results
  --------------------------------------------------------------------------------------------------------
    Electrostatics                  0.05106565 [mEh]       0.03204418 [kcal/mol]       0.13407284 [kJ/mol]
      Elst10,r                      0.05106565 [mEh]       0.03204418 [kcal/mol]       0.13407284 [kJ/mol]

    Exchange                        0.00000000 [mEh]       0.00000000 [kcal/mol]       0.00000000 [kJ/mol]
      Exch10                        0.00000000 [mEh]       0.00000000 [kcal/mol]       0.00000000 [kJ/mol]
      Exch10(S^2)                   0.00000000 [mEh]       0.00000000 [kcal/mol]       0.00000000 [kJ/mol]

    Induction                      -0.00015632 [mEh]      -0.00009809 [kcal/mol]      -0.00041043 [kJ/mol]
      Ind20,r                      -0.00017795 [mEh]      -0.00011166 [kcal/mol]      -0.00046720 [kJ/mol]
      Exch-Ind20,r                  0.00000000 [mEh]       0.00000000 [kcal/mol]       0.00000000 [kJ/mol]
      delta HF,r (2)                0.00002162 [mEh]       0.00001357 [kcal/mol]       0.00005677 [kJ/mol]

    Dispersion                     -0.00081595 [mEh]      -0.00051202 [kcal/mol]      -0.00214228 [kJ/mol]
      Disp20                       -0.00081595 [mEh]      -0.00051202 [kcal/mol]      -0.00214228 [kJ/mol]
      Exch-Disp20                   0.00000000 [mEh]       0.00000000 [kcal/mol]       0.00000000 [kJ/mol]
      Disp20 (SS)                  -0.00040798 [mEh]      -0.00025601 [kcal/mol]      -0.00107114 [kJ/mol]
      Disp20 (OS)                  -0.00040798 [mEh]      -0.00025601 [kcal/mol]      -0.00107114 [kJ/mol]
      Exch-Disp20 (SS)              0.00000000 [mEh]       0.00000000 [kcal/mol]       0.00000000 [kJ/mol]
      Exch-Disp20 (OS)              0.00000000 [mEh]       0.00000000 [kcal/mol]       0.00000000 [kJ/mol]

  Total HF                          0.05090932 [mEh]       0.03194608 [kcal/mol]       0.13366241 [kJ/mol]
  Total SAPT0                       0.05009337 [mEh]       0.03143407 [kcal/mol]       0.13152013 [kJ/mol]

  Special recipe for scaled SAPT0 (see Manual):
    Electrostatics sSAPT0           0.05106565 [mEh]       0.03204418 [kcal/mol]       0.13407284 [kJ/mol]
    Exchange sSAPT0                 0.00000000 [mEh]       0.00000000 [kcal/mol]       0.00000000 [kJ/mol]
    Induction sSAPT0               -0.00015632 [mEh]      -0.00009809 [kcal/mol]      -0.00041043 [kJ/mol]
    Dispersion sSAPT0              -0.00081595 [mEh]      -0.00051202 [kcal/mol]      -0.00214228 [kJ/mol]
  Total sSAPT0                      0.05009337 [mEh]       0.03143407 [kcal/mol]       0.13152013 [kJ/mol]
  --------------------------------------------------------------------------------------------------------

*** Psi4 exiting successfully. Buy a developer a beer!
