                               Psi4 1.4rc3

  ==> Input File <==

--------------------------------------------------------------------------
# PSI4 file produced by CrystaLattE

# Generated from:               imidazole.xyz
# Psithon input for N-mer:      2mer-0+177
# Number of atoms per monomer:  [9, 9]
# Number of replicas:           2
# COM priority:                 2.210790098303e-05
# Minimum COM separations:      18.855
# Separation priority:          4.142212262601e-05
# Minimum monomer separations:  15.294
# Cutoff priority:              1.433209901974e-06
# Nuclear repulsion energy:     364.59837988992894

memory 7 GB

molecule Dimer_0_177 {
  N           -4.29309621      -3.06837431       5.30516231
  N           -2.15847371      -2.92627296       1.72037448
  H           -0.02545587      -6.35903575       2.22046452
  H           -2.68566968      -6.53260241       6.61445954
  H           -4.74388423      -0.00609006       2.75615968
  H           -1.41045540      -2.24723147       0.00000000
  C           -1.43737991      -5.07504848       2.94065891
  C           -2.76900782      -5.14609916       5.13522880
  C           -3.85955036      -1.77728198       3.21093411
--
  N            4.67127568      27.38191658     -10.87898141
  N            6.80589818      27.52401794     -14.46376924
  H            8.93891602      24.09125515     -13.96367920
  H            6.27870221      23.91768849      -9.56968418
  H            4.22048766      30.44420084     -13.42798405
  H            7.55391648      28.20305943     -16.18414372
  C            7.52699198      25.37524241     -13.24348481
  C            6.19536407      25.30419173     -11.04891492
  C            5.10482153      28.67300892     -12.97320961
units = au
no_com
no_reorient
}

set {
  e_convergence 10
  d_convergence 10
  scf_type df
  mp2_type df
  cc_type df
  freeze_core true
}

energy('sapt0/aug-cc-pvdz')

--------------------------------------------------------------------------

  //              Dimer HF             //
    Molecular point group: c1
  Charge       = 0
  Multiplicity = 1
  Basis Set: AUG-CC-PVDZ
    Blend: AUG-CC-PVDZ
  Basis Set: (AUG-CC-PVDZ AUX)
    Blend: AUG-CC-PVDZ-JKFIT
  @DF-RHF Final Energy:  -449.68739665683012
    Total Energy =                       -449.6873966568300602
  //            Monomer A HF           //
    Molecular point group: c1
  Multiplicity = 1
  Basis Set: AUG-CC-PVDZ
    Blend: AUG-CC-PVDZ
  Basis Set: (AUG-CC-PVDZ AUX)
    Blend: AUG-CC-PVDZ-JKFIT
  @DF-RHF Final Energy:  -224.84369627762581
    Total Energy =                       -224.8436962776258099
  //            Monomer B HF           //
    Molecular point group: c1

    Geometry (in Bohr), charge = 0, multiplicity = 1:

       Center              X                  Y                   Z               Mass
    ------------   -----------------  -----------------  -----------------  -----------------
      Gh(N)          -4.293096210000    -3.068374310000     5.305162310000    14.003074004430
      Gh(N)          -2.158473710000    -2.926272960000     1.720374480000    14.003074004430
      Gh(H)          -0.025455870000    -6.359035750000     2.220464520000     1.007825032230
      Gh(H)          -2.685669680000    -6.532602410000     6.614459540000     1.007825032230
      Gh(H)          -4.743884230000    -0.006090060000     2.756159680000     1.007825032230
      Gh(H)          -1.410455400000    -2.247231470000     0.000000000000     1.007825032230
      Gh(C)          -1.437379910000    -5.075048480000     2.940658910000    12.000000000000
      Gh(C)          -2.769007820000    -5.146099160000     5.135228800000    12.000000000000
      Gh(C)          -3.859550360000    -1.777281980000     3.210934110000    12.000000000000
         N            4.671275680000    27.381916580000   -10.878981410000    14.003074004430
         N            6.805898180000    27.524017940000   -14.463769240000    14.003074004430
         H            8.938916020000    24.091255150000   -13.963679200000     1.007825032230
         H            6.278702210000    23.917688490000    -9.569684180000     1.007825032230
         H            4.220487660000    30.444200840000   -13.427984050000     1.007825032230
         H            7.553916480000    28.203059430000   -16.184143720000     1.007825032230
         C            7.526991980000    25.375242410000   -13.243484810000    12.000000000000
         C            6.195364070000    25.304191730000   -11.048914920000    12.000000000000
         C            5.104821530000    28.673008920000   -12.973209610000    12.000000000000

  Charge       = 0
  Multiplicity = 1
  Basis Set: AUG-CC-PVDZ
    Blend: AUG-CC-PVDZ
  Basis Set: (AUG-CC-PVDZ AUX)
    Blend: AUG-CC-PVDZ-JKFIT

    Orbital Energies [Eh]
    ---------------------

    Doubly Occupied:

       1A    -15.637071     2A    -15.551216     3A    -11.300916
       4A    -11.263160     5A    -11.245653     6A     -1.352867
       7A     -1.169098     8A     -1.012098     9A     -0.824390
      10A     -0.803731    11A     -0.760666    12A     -0.610096
      13A     -0.603958    14A     -0.601922    15A     -0.570942
      16A     -0.435483    17A     -0.400464    18A     -0.320685

  @DF-RHF Final Energy:  -224.84369627845712

   => Energetics <=

    Nuclear Repulsion Energy =            164.0866958774808779
    One-Electron Energy =                -628.9319560710091537
    Two-Electron Energy =                 240.0015639150711309
    Total Energy =                       -224.8436962784571165

  Dipole Moment: [D]
     X:     2.0431      Y:     0.4150      Z:    -3.3867     Total:     3.9769

    SAPT Results
  --------------------------------------------------------------------------------------------------------
    Electrostatics                 -0.00396196 [mEh]      -0.00248617 [kcal/mol]      -0.01040213 [kJ/mol]
      Elst10,r                     -0.00396196 [mEh]      -0.00248617 [kcal/mol]      -0.01040213 [kJ/mol]

    Exchange                        0.00000000 [mEh]       0.00000000 [kcal/mol]       0.00000000 [kJ/mol]
      Exch10                        0.00000000 [mEh]       0.00000000 [kcal/mol]       0.00000000 [kJ/mol]
      Exch10(S^2)                   0.00000000 [mEh]       0.00000000 [kcal/mol]       0.00000000 [kJ/mol]

    Induction                      -0.00013879 [mEh]      -0.00008709 [kcal/mol]      -0.00036438 [kJ/mol]
      Ind20,r                      -0.00013088 [mEh]      -0.00008213 [kcal/mol]      -0.00034364 [kJ/mol]
      Exch-Ind20,r                  0.00000000 [mEh]       0.00000000 [kcal/mol]       0.00000000 [kJ/mol]
      delta HF,r (2)               -0.00000790 [mEh]      -0.00000496 [kcal/mol]      -0.00002075 [kJ/mol]

    Dispersion                     -0.00067800 [mEh]      -0.00042545 [kcal/mol]      -0.00178009 [kJ/mol]
      Disp20                       -0.00067800 [mEh]      -0.00042545 [kcal/mol]      -0.00178009 [kJ/mol]
      Exch-Disp20                   0.00000000 [mEh]       0.00000000 [kcal/mol]       0.00000000 [kJ/mol]
      Disp20 (SS)                  -0.00033900 [mEh]      -0.00021273 [kcal/mol]      -0.00089005 [kJ/mol]
      Disp20 (OS)                  -0.00033900 [mEh]      -0.00021273 [kcal/mol]      -0.00089005 [kJ/mol]
      Exch-Disp20 (SS)              0.00000000 [mEh]       0.00000000 [kcal/mol]       0.00000000 [kJ/mol]
      Exch-Disp20 (OS)              0.00000000 [mEh]       0.00000000 [kcal/mol]       0.00000000 [kJ/mol]

  Total HF                         -0.00410075 [mEh]      -0.00257326 [kcal/mol]      -0.01076651 [kJ/mol]
  Total SAPT0                      -0.00477875 [mEh]      -0.00299871 [kcal/mol]      -0.01254660 [kJ/mol]

  Special recipe for scaled SAPT0 (see Manual):
    Electrostatics sSAPT0          -0.00396196 [mEh]      -0.00248617 [kcal/mol]      -0.01040213 [kJ/mol]
    Exchange sSAPT0                 0.00000000 [mEh]       0.00000000 [kcal/mol]       0.00000000 [kJ/mol]
    Induction sSAPT0               -0.00013879 [mEh]      -0.00008709 [kcal/mol]      -0.00036438 [kJ/mol]
    Dispersion sSAPT0              -0.00067800 [mEh]      -0.00042545 [kcal/mol]      -0.00178009 [kJ/mol]
  Total sSAPT0                     -0.00477875 [mEh]      -0.00299871 [kcal/mol]      -0.01254660 [kJ/mol]
  --------------------------------------------------------------------------------------------------------

*** Psi4 exiting successfully. Buy a developer a beer!
