                               Psi4 1.4rc3

  ==> Input File <==

--------------------------------------------------------------------------
# PSI4 file produced by CrystaLattE

# Generated from:               imidazole.xyz
# Psithon input for N-mer:      2mer-0+358
# Number of atoms per monomer:  [9, 9]
# Number of replicas:           1
# COM priority:                 1.524975478035e-05
# Minimum COM separations:      21.339
# Separation priority:          2.455837174075e-05
# Minimum monomer separations:  18.205
# Cutoff priority:              7.138376090513e-07
# Nuclear repulsion energy:     360.3676482578833

memory 7 GB

molecule Dimer_0_358 {
  N           -4.29309621      -3.06837431       5.30516231
  N           -2.15847371      -2.92627296       1.72037448
  H           -0.02545587      -6.35903575       2.22046452
  H           -2.68566968      -6.53260241       6.61445954
  H           -4.74388423      -0.00609006       2.75615968
  H           -1.41045540      -2.24723147       0.00000000
  C           -1.43737991      -5.07504848       2.94065891
  C           -2.76900782      -5.14609916       5.13522880
  C           -3.85955036      -1.77728198       3.21093411
--
  N           38.25504367      -6.17836402      -4.69340168
  N           36.12042117      -6.32046538      -1.10861384
  H           33.98740333      -2.88770259      -1.60870389
  H           36.64761714      -2.71413593      -6.00269891
  H           38.70583168      -9.24064828      -2.14439904
  H           35.37240286      -6.99950687       0.61176063
  C           35.39932737      -4.17168985      -2.32889828
  C           36.73095528      -4.10063917      -4.52346817
  C           37.82149782      -7.46945636      -2.59917348
units = au
no_com
no_reorient
}

set {
  e_convergence 10
  d_convergence 10
  scf_type df
  mp2_type df
  cc_type df
  freeze_core true
}

energy('sapt0/aug-cc-pvdz')

--------------------------------------------------------------------------

  //              Dimer HF             //
    Molecular point group: c1
  Charge       = 0
  Multiplicity = 1
  Basis Set: AUG-CC-PVDZ
    Blend: AUG-CC-PVDZ
  Basis Set: (AUG-CC-PVDZ AUX)
    Blend: AUG-CC-PVDZ-JKFIT
  @DF-RHF Final Energy:  -449.68739226734886
    Total Energy =                       -449.6873922673488551
  //            Monomer A HF           //
    Molecular point group: c1
  Multiplicity = 1
  Basis Set: AUG-CC-PVDZ
    Blend: AUG-CC-PVDZ
  Basis Set: (AUG-CC-PVDZ AUX)
    Blend: AUG-CC-PVDZ-JKFIT
  @DF-RHF Final Energy:  -224.84369627769468
    Total Energy =                       -224.8436962776946757
  //            Monomer B HF           //
    Molecular point group: c1

    Geometry (in Bohr), charge = 0, multiplicity = 1:

       Center              X                  Y                   Z               Mass
    ------------   -----------------  -----------------  -----------------  -----------------
      Gh(N)          -4.293096210000    -3.068374310000     5.305162310000    14.003074004430
      Gh(N)          -2.158473710000    -2.926272960000     1.720374480000    14.003074004430
      Gh(H)          -0.025455870000    -6.359035750000     2.220464520000     1.007825032230
      Gh(H)          -2.685669680000    -6.532602410000     6.614459540000     1.007825032230
      Gh(H)          -4.743884230000    -0.006090060000     2.756159680000     1.007825032230
      Gh(H)          -1.410455400000    -2.247231470000     0.000000000000     1.007825032230
      Gh(C)          -1.437379910000    -5.075048480000     2.940658910000    12.000000000000
      Gh(C)          -2.769007820000    -5.146099160000     5.135228800000    12.000000000000
      Gh(C)          -3.859550360000    -1.777281980000     3.210934110000    12.000000000000
         N           38.255043670000    -6.178364020000    -4.693401680000    14.003074004430
         N           36.120421170000    -6.320465380000    -1.108613840000    14.003074004430
         H           33.987403330000    -2.887702590000    -1.608703890000     1.007825032230
         H           36.647617140000    -2.714135930000    -6.002698910000     1.007825032230
         H           38.705831680000    -9.240648280000    -2.144399040000     1.007825032230
         H           35.372402860000    -6.999506870000     0.611760630000     1.007825032230
         C           35.399327370000    -4.171689850000    -2.328898280000    12.000000000000
         C           36.730955280000    -4.100639170000    -4.523468170000    12.000000000000
         C           37.821497820000    -7.469456360000    -2.599173480000    12.000000000000

  Charge       = 0
  Multiplicity = 1
  Basis Set: AUG-CC-PVDZ
    Blend: AUG-CC-PVDZ
  Basis Set: (AUG-CC-PVDZ AUX)
    Blend: AUG-CC-PVDZ-JKFIT

    Orbital Energies [Eh]
    ---------------------

    Doubly Occupied:

       1A    -15.637071     2A    -15.551216     3A    -11.300916
       4A    -11.263160     5A    -11.245653     6A     -1.352867
       7A     -1.169098     8A     -1.012098     9A     -0.824390
      10A     -0.803731    11A     -0.760666    12A     -0.610096
      13A     -0.603958    14A     -0.601922    15A     -0.570942
      16A     -0.435483    17A     -0.400464    18A     -0.320685

  @DF-RHF Final Energy:  -224.84369627796715

   => Energetics <=

    Nuclear Repulsion Energy =            164.0866957776334516
    One-Electron Energy =                -628.9319558695052592
    Two-Electron Energy =                 240.0015638139046530
    Total Energy =                       -224.8436962779671546

  Dipole Moment: [D]
     X:    -2.0431      Y:    -0.4150      Z:     3.3867     Total:     3.9769

    SAPT Results
  --------------------------------------------------------------------------------------------------------
    Electrostatics                  0.00034227 [mEh]       0.00021478 [kcal/mol]       0.00089864 [kJ/mol]
      Elst10,r                      0.00034227 [mEh]       0.00021478 [kcal/mol]       0.00089864 [kJ/mol]

    Exchange                        0.00000000 [mEh]       0.00000000 [kcal/mol]       0.00000000 [kJ/mol]
      Exch10                        0.00000000 [mEh]       0.00000000 [kcal/mol]       0.00000000 [kJ/mol]
      Exch10(S^2)                   0.00000000 [mEh]       0.00000000 [kcal/mol]       0.00000000 [kJ/mol]

    Induction                      -0.00005396 [mEh]      -0.00003386 [kcal/mol]      -0.00014167 [kJ/mol]
      Ind20,r                      -0.00004751 [mEh]      -0.00002981 [kcal/mol]      -0.00012474 [kJ/mol]
      Exch-Ind20,r                  0.00000000 [mEh]       0.00000000 [kcal/mol]       0.00000000 [kJ/mol]
      delta HF,r (2)               -0.00000645 [mEh]      -0.00000405 [kcal/mol]      -0.00001693 [kJ/mol]

    Dispersion                     -0.00029076 [mEh]      -0.00018246 [kcal/mol]      -0.00076340 [kJ/mol]
      Disp20                       -0.00029076 [mEh]      -0.00018246 [kcal/mol]      -0.00076340 [kJ/mol]
      Exch-Disp20                   0.00000000 [mEh]       0.00000000 [kcal/mol]       0.00000000 [kJ/mol]
      Disp20 (SS)                  -0.00014538 [mEh]      -0.00009123 [kcal/mol]      -0.00038170 [kJ/mol]
      Disp20 (OS)                  -0.00014538 [mEh]      -0.00009123 [kcal/mol]      -0.00038170 [kJ/mol]
      Exch-Disp20 (SS)              0.00000000 [mEh]       0.00000000 [kcal/mol]       0.00000000 [kJ/mol]
      Exch-Disp20 (OS)              0.00000000 [mEh]       0.00000000 [kcal/mol]       0.00000000 [kJ/mol]

  Total HF                          0.00028831 [mEh]       0.00018092 [kcal/mol]       0.00075697 [kJ/mol]
  Total SAPT0                      -0.00000245 [mEh]      -0.00000154 [kcal/mol]      -0.00000643 [kJ/mol]

  Special recipe for scaled SAPT0 (see Manual):
    Electrostatics sSAPT0           0.00034227 [mEh]       0.00021478 [kcal/mol]       0.00089864 [kJ/mol]
    Exchange sSAPT0                 0.00000000 [mEh]       0.00000000 [kcal/mol]       0.00000000 [kJ/mol]
    Induction sSAPT0               -0.00005396 [mEh]      -0.00003386 [kcal/mol]      -0.00014167 [kJ/mol]
    Dispersion sSAPT0              -0.00029076 [mEh]      -0.00018246 [kcal/mol]      -0.00076340 [kJ/mol]
  Total sSAPT0                     -0.00000245 [mEh]      -0.00000154 [kcal/mol]      -0.00000643 [kJ/mol]
  --------------------------------------------------------------------------------------------------------

*** Psi4 exiting successfully. Buy a developer a beer!
