                               Psi4 1.4rc3

  ==> Input File <==

--------------------------------------------------------------------------
# PSI4 file produced by CrystaLattE

# Generated from:               imidazole.xyz
# Psithon input for N-mer:      2mer-0+192
# Number of atoms per monomer:  [9, 9]
# Number of replicas:           2
# COM priority:                 2.625825872171e-05
# Minimum COM separations:      17.804
# Separation priority:          4.268307137298e-05
# Minimum monomer separations:  15.142
# Cutoff priority:              1.491675019775e-06
# Nuclear repulsion energy:     366.7044755160743

memory 7 GB

molecule Dimer_0_192 {
  N           -4.29309621      -3.06837431       5.30516231
  N           -2.15847371      -2.92627296       1.72037448
  H           -0.02545587      -6.35903575       2.22046452
  H           -2.68566968      -6.53260241       6.61445954
  H           -4.74388423      -0.00609006       2.75615968
  H           -1.41045540      -2.24723147       0.00000000
  C           -1.43737991      -5.07504848       2.94065891
  C           -2.76900782      -5.14609916       5.13522880
  C           -3.85955036      -1.77728198       3.21093411
--
  N           -5.17481981      19.19687839     -18.97105327
  N           -3.04019731      19.05477703     -22.55584110
  H           -0.90717946      22.48753983     -22.05575106
  H           -3.56739328      22.66110648     -17.66175604
  H           -5.62560782      16.13459414     -21.52005591
  H           -2.29217900      18.37573555     -24.27621558
  C           -2.31910351      21.20355256     -21.33555667
  C           -3.65073142      21.27460324     -19.14098678
  C           -4.74127395      17.90578606     -21.06528147
units = au
no_com
no_reorient
}

set {
  e_convergence 10
  d_convergence 10
  scf_type df
  mp2_type df
  cc_type df
  freeze_core true
}

energy('sapt0/aug-cc-pvdz')

--------------------------------------------------------------------------

  //              Dimer HF             //
    Molecular point group: c1
  Charge       = 0
  Multiplicity = 1
  Basis Set: AUG-CC-PVDZ
    Blend: AUG-CC-PVDZ
  Basis Set: (AUG-CC-PVDZ AUX)
    Blend: AUG-CC-PVDZ-JKFIT
  @DF-RHF Final Energy:  -449.68742296864514
    Total Energy =                       -449.6874229686451372
  //            Monomer A HF           //
    Molecular point group: c1
  Multiplicity = 1
  Basis Set: AUG-CC-PVDZ
    Blend: AUG-CC-PVDZ
  Basis Set: (AUG-CC-PVDZ AUX)
    Blend: AUG-CC-PVDZ-JKFIT
  @DF-RHF Final Energy:  -224.84369627788092
    Total Energy =                       -224.8436962778809232
  //            Monomer B HF           //
    Molecular point group: c1

    Geometry (in Bohr), charge = 0, multiplicity = 1:

       Center              X                  Y                   Z               Mass
    ------------   -----------------  -----------------  -----------------  -----------------
      Gh(N)          -4.293096210000    -3.068374310000     5.305162310000    14.003074004430
      Gh(N)          -2.158473710000    -2.926272960000     1.720374480000    14.003074004430
      Gh(H)          -0.025455870000    -6.359035750000     2.220464520000     1.007825032230
      Gh(H)          -2.685669680000    -6.532602410000     6.614459540000     1.007825032230
      Gh(H)          -4.743884230000    -0.006090060000     2.756159680000     1.007825032230
      Gh(H)          -1.410455400000    -2.247231470000     0.000000000000     1.007825032230
      Gh(C)          -1.437379910000    -5.075048480000     2.940658910000    12.000000000000
      Gh(C)          -2.769007820000    -5.146099160000     5.135228800000    12.000000000000
      Gh(C)          -3.859550360000    -1.777281980000     3.210934110000    12.000000000000
         N           -5.174819810000    19.196878390000   -18.971053270000    14.003074004430
         N           -3.040197310000    19.054777030000   -22.555841100000    14.003074004430
         H           -0.907179460000    22.487539830000   -22.055751060000     1.007825032230
         H           -3.567393280000    22.661106480000   -17.661756040000     1.007825032230
         H           -5.625607820000    16.134594140000   -21.520055910000     1.007825032230
         H           -2.292179000000    18.375735550000   -24.276215580000     1.007825032230
         C           -2.319103510000    21.203552560000   -21.335556670000    12.000000000000
         C           -3.650731420000    21.274603240000   -19.140986780000    12.000000000000
         C           -4.741273950000    17.905786060000   -21.065281470000    12.000000000000

  Charge       = 0
  Multiplicity = 1
  Basis Set: AUG-CC-PVDZ
    Blend: AUG-CC-PVDZ
  Basis Set: (AUG-CC-PVDZ AUX)
    Blend: AUG-CC-PVDZ-JKFIT

    Orbital Energies [Eh]
    ---------------------

    Doubly Occupied:

       1A    -15.637071     2A    -15.551216     3A    -11.300916
       4A    -11.263160     5A    -11.245653     6A     -1.352867
       7A     -1.169098     8A     -1.012098     9A     -0.824390
      10A     -0.803731    11A     -0.760666    12A     -0.610096
      13A     -0.603958    14A     -0.601922    15A     -0.570942
      16A     -0.435483    17A     -0.400464    18A     -0.320685

  @DF-RHF Final Energy:  -224.84369627890985

   => Energetics <=

    Nuclear Repulsion Energy =            164.0866960153085472
    One-Electron Energy =                -628.9319563395531532
    Two-Electron Energy =                 240.0015640453347316
    Total Energy =                       -224.8436962789098459

  Dipole Moment: [D]
     X:     2.0431      Y:    -0.4150      Z:    -3.3867     Total:     3.9769

    SAPT Results
  --------------------------------------------------------------------------------------------------------
    Electrostatics                 -0.03018999 [mEh]      -0.01894450 [kcal/mol]      -0.07926380 [kJ/mol]
      Elst10,r                     -0.03018999 [mEh]      -0.01894450 [kcal/mol]      -0.07926380 [kJ/mol]

    Exchange                       -0.00000000 [mEh]      -0.00000000 [kcal/mol]      -0.00000000 [kJ/mol]
      Exch10                       -0.00000000 [mEh]      -0.00000000 [kcal/mol]      -0.00000000 [kJ/mol]
      Exch10(S^2)                  -0.00000000 [mEh]      -0.00000000 [kcal/mol]      -0.00000000 [kJ/mol]

    Induction                      -0.00022187 [mEh]      -0.00013922 [kcal/mol]      -0.00058252 [kJ/mol]
      Ind20,r                      -0.00021795 [mEh]      -0.00013677 [kcal/mol]      -0.00057223 [kJ/mol]
      Exch-Ind20,r                  0.00000000 [mEh]       0.00000000 [kcal/mol]       0.00000000 [kJ/mol]
      delta HF,r (2)               -0.00000392 [mEh]      -0.00000246 [kcal/mol]      -0.00001029 [kJ/mol]

    Dispersion                     -0.00089658 [mEh]      -0.00056261 [kcal/mol]      -0.00235397 [kJ/mol]
      Disp20                       -0.00089658 [mEh]      -0.00056261 [kcal/mol]      -0.00235397 [kJ/mol]
      Exch-Disp20                   0.00000000 [mEh]       0.00000000 [kcal/mol]       0.00000000 [kJ/mol]
      Disp20 (SS)                  -0.00044829 [mEh]      -0.00028131 [kcal/mol]      -0.00117698 [kJ/mol]
      Disp20 (OS)                  -0.00044829 [mEh]      -0.00028131 [kcal/mol]      -0.00117698 [kJ/mol]
      Exch-Disp20 (SS)              0.00000000 [mEh]       0.00000000 [kcal/mol]       0.00000000 [kJ/mol]
      Exch-Disp20 (OS)              0.00000000 [mEh]       0.00000000 [kcal/mol]       0.00000000 [kJ/mol]

  Total HF                         -0.03041185 [mEh]      -0.01908373 [kcal/mol]      -0.07984631 [kJ/mol]
  Total SAPT0                      -0.03130843 [mEh]      -0.01964634 [kcal/mol]      -0.08220028 [kJ/mol]

  Special recipe for scaled SAPT0 (see Manual):
    Electrostatics sSAPT0          -0.03018999 [mEh]      -0.01894450 [kcal/mol]      -0.07926380 [kJ/mol]
    Exchange sSAPT0                -0.00000000 [mEh]      -0.00000000 [kcal/mol]      -0.00000000 [kJ/mol]
    Induction sSAPT0               -0.00022187 [mEh]      -0.00013922 [kcal/mol]      -0.00058252 [kJ/mol]
    Dispersion sSAPT0              -0.00089658 [mEh]      -0.00056261 [kcal/mol]      -0.00235397 [kJ/mol]
  Total sSAPT0                     -0.03130843 [mEh]      -0.01964634 [kcal/mol]      -0.08220028 [kJ/mol]
  --------------------------------------------------------------------------------------------------------

*** Psi4 exiting successfully. Buy a developer a beer!
