                               Psi4 1.4rc3

  ==> Input File <==

--------------------------------------------------------------------------
# PSI4 file produced by CrystaLattE

# Generated from:               imidazole.xyz
# Psithon input for N-mer:      2mer-0+72
# Number of atoms per monomer:  [9, 9]
# Number of replicas:           2
# COM priority:                 5.747452205892e-05
# Minimum COM separations:      13.712
# Separation priority:          1.080966127096e-04
# Minimum monomer separations:  11.109
# Cutoff priority:              5.149314847486e-06
# Nuclear repulsion energy:     378.1935012953907

memory 7 GB

molecule Dimer_0_72 {
  N           -4.29309621      -3.06837431       5.30516231
  N           -2.15847371      -2.92627296       1.72037448
  H           -0.02545587      -6.35903575       2.22046452
  H           -2.68566968      -6.53260241       6.61445954
  H           -4.74388423      -0.00609006       2.75615968
  H           -1.41045540      -2.24723147       0.00000000
  C           -1.43737991      -5.07504848       2.94065891
  C           -2.76900782      -5.14609916       5.13522880
  C           -3.85955036      -1.77728198       3.21093411
--
  N           19.44457630      12.15677114       3.39867018
  N           17.30995380      12.29887249       6.98345802
  H           15.17693595       8.86610970       6.48336797
  H           17.83714977       8.69254304       2.08937295
  H           19.89536431      15.21905539       5.94767282
  H           16.56193549      12.97791398       8.70383249
  C           16.58886000      10.15009697       5.76317358
  C           17.92048791      10.07904629       3.56860369
  C           19.01103044      13.44786347       5.49289838
units = au
no_com
no_reorient
}

set {
  e_convergence 10
  d_convergence 10
  scf_type df
  mp2_type df
  cc_type df
  freeze_core true
}

energy('sapt0/aug-cc-pvdz')

--------------------------------------------------------------------------

  //              Dimer HF             //
    Molecular point group: c1
  Charge       = 0
  Multiplicity = 1
  Basis Set: AUG-CC-PVDZ
    Blend: AUG-CC-PVDZ
  Basis Set: (AUG-CC-PVDZ AUX)
    Blend: AUG-CC-PVDZ-JKFIT
  @DF-RHF Final Energy:  -449.68748410402725
    Total Energy =                       -449.6874841040272486
  //            Monomer A HF           //
    Molecular point group: c1
  Multiplicity = 1
  Basis Set: AUG-CC-PVDZ
    Blend: AUG-CC-PVDZ
  Basis Set: (AUG-CC-PVDZ AUX)
    Blend: AUG-CC-PVDZ-JKFIT
  @DF-RHF Final Energy:  -224.84369632199315
    Total Energy =                       -224.8436963219931499
  //            Monomer B HF           //
    Molecular point group: c1

    Geometry (in Bohr), charge = 0, multiplicity = 1:

       Center              X                  Y                   Z               Mass
    ------------   -----------------  -----------------  -----------------  -----------------
      Gh(N)          -4.293096210000    -3.068374310000     5.305162310000    14.003074004430
      Gh(N)          -2.158473710000    -2.926272960000     1.720374480000    14.003074004430
      Gh(H)          -0.025455870000    -6.359035750000     2.220464520000     1.007825032230
      Gh(H)          -2.685669680000    -6.532602410000     6.614459540000     1.007825032230
      Gh(H)          -4.743884230000    -0.006090060000     2.756159680000     1.007825032230
      Gh(H)          -1.410455400000    -2.247231470000     0.000000000000     1.007825032230
      Gh(C)          -1.437379910000    -5.075048480000     2.940658910000    12.000000000000
      Gh(C)          -2.769007820000    -5.146099160000     5.135228800000    12.000000000000
      Gh(C)          -3.859550360000    -1.777281980000     3.210934110000    12.000000000000
         N           19.444576300000    12.156771140000     3.398670180000    14.003074004430
         N           17.309953800000    12.298872490000     6.983458020000    14.003074004430
         H           15.176935950000     8.866109700000     6.483367970000     1.007825032230
         H           17.837149770000     8.692543040000     2.089372950000     1.007825032230
         H           19.895364310000    15.219055390000     5.947672820000     1.007825032230
         H           16.561935490000    12.977913980000     8.703832490000     1.007825032230
         C           16.588860000000    10.150096970000     5.763173580000    12.000000000000
         C           17.920487910000    10.079046290000     3.568603690000    12.000000000000
         C           19.011030440000    13.447863470000     5.492898380000    12.000000000000

  Charge       = 0
  Multiplicity = 1
  Basis Set: AUG-CC-PVDZ
    Blend: AUG-CC-PVDZ
  Basis Set: (AUG-CC-PVDZ AUX)
    Blend: AUG-CC-PVDZ-JKFIT

    Orbital Energies [Eh]
    ---------------------

    Doubly Occupied:

       1A    -15.637071     2A    -15.551216     3A    -11.300916
       4A    -11.263160     5A    -11.245653     6A     -1.352867
       7A     -1.169098     8A     -1.012098     9A     -0.824390
      10A     -0.803731    11A     -0.760666    12A     -0.610096
      13A     -0.603958    14A     -0.601922    15A     -0.570942
      16A     -0.435483    17A     -0.400464    18A     -0.320685

  @DF-RHF Final Energy:  -224.84369630875727

   => Energetics <=

    Nuclear Repulsion Energy =            164.0866959299459609
    One-Electron Energy =                -628.9319565078008054
    Two-Electron Energy =                 240.0015642690975710
    Total Energy =                       -224.8436963087572735

  Dipole Moment: [D]
     X:    -2.0431      Y:     0.4150      Z:     3.3867     Total:     3.9769

    SAPT Results
  --------------------------------------------------------------------------------------------------------
    Electrostatics                 -0.09100385 [mEh]      -0.05710578 [kcal/mol]      -0.23893057 [kJ/mol]
      Elst10,r                     -0.09100385 [mEh]      -0.05710578 [kcal/mol]      -0.23893057 [kJ/mol]

    Exchange                        0.00000005 [mEh]       0.00000003 [kcal/mol]       0.00000012 [kJ/mol]
      Exch10                        0.00000005 [mEh]       0.00000003 [kcal/mol]       0.00000012 [kJ/mol]
      Exch10(S^2)                   0.00000005 [mEh]       0.00000003 [kcal/mol]       0.00000012 [kJ/mol]

    Induction                      -0.00046947 [mEh]      -0.00029460 [kcal/mol]      -0.00123261 [kJ/mol]
      Ind20,r                      -0.00046539 [mEh]      -0.00029204 [kcal/mol]      -0.00122189 [kJ/mol]
      Exch-Ind20,r                  0.00000009 [mEh]       0.00000005 [kcal/mol]       0.00000023 [kJ/mol]
      delta HF,r (2)               -0.00000417 [mEh]      -0.00000262 [kcal/mol]      -0.00001095 [kJ/mol]

    Dispersion                     -0.00419455 [mEh]      -0.00263212 [kcal/mol]      -0.01101280 [kJ/mol]
      Disp20                       -0.00419456 [mEh]      -0.00263213 [kcal/mol]      -0.01101282 [kJ/mol]
      Exch-Disp20                   0.00000001 [mEh]       0.00000000 [kcal/mol]       0.00000001 [kJ/mol]
      Disp20 (SS)                  -0.00209728 [mEh]      -0.00131606 [kcal/mol]      -0.00550641 [kJ/mol]
      Disp20 (OS)                  -0.00209728 [mEh]      -0.00131606 [kcal/mol]      -0.00550641 [kJ/mol]
      Exch-Disp20 (SS)              0.00000000 [mEh]       0.00000000 [kcal/mol]       0.00000001 [kJ/mol]
      Exch-Disp20 (OS)              0.00000000 [mEh]       0.00000000 [kcal/mol]       0.00000000 [kJ/mol]

  Total HF                         -0.09147328 [mEh]      -0.05740035 [kcal/mol]      -0.24016306 [kJ/mol]
  Total SAPT0                      -0.09566783 [mEh]      -0.06003247 [kcal/mol]      -0.25117586 [kJ/mol]

  Special recipe for scaled SAPT0 (see Manual):
    Electrostatics sSAPT0          -0.09100385 [mEh]      -0.05710578 [kcal/mol]      -0.23893057 [kJ/mol]
    Exchange sSAPT0                 0.00000005 [mEh]       0.00000003 [kcal/mol]       0.00000012 [kJ/mol]
    Induction sSAPT0               -0.00046947 [mEh]      -0.00029460 [kcal/mol]      -0.00123261 [kJ/mol]
    Dispersion sSAPT0              -0.00419455 [mEh]      -0.00263212 [kcal/mol]      -0.01101280 [kJ/mol]
  Total sSAPT0                     -0.09566783 [mEh]      -0.06003247 [kcal/mol]      -0.25117586 [kJ/mol]
  --------------------------------------------------------------------------------------------------------

*** Psi4 exiting successfully. Buy a developer a beer!
