                               Psi4 1.4rc3

  ==> Input File <==

--------------------------------------------------------------------------
# PSI4 file produced by CrystaLattE

# Generated from:               imidazole.xyz
# Psithon input for N-mer:      2mer-0+37
# Number of atoms per monomer:  [9, 9]
# Number of replicas:           1
# COM priority:                 1.778817965280e-04
# Minimum COM separations:      9.409
# Separation priority:          1.212228692560e-03
# Minimum monomer separations:  4.963
# Cutoff priority:              1.292546211195e-04
# Nuclear repulsion energy:     402.1297250975489

memory 7 GB

molecule Dimer_0_37 {
  N           -4.29309621      -3.06837431       5.30516231
  N           -2.15847371      -2.92627296       1.72037448
  H           -0.02545587      -6.35903575       2.22046452
  H           -2.68566968      -6.53260241       6.61445954
  H           -4.74388423      -0.00609006       2.75615968
  H           -1.41045540      -2.24723147       0.00000000
  C           -1.43737991      -5.07504848       2.94065891
  C           -2.76900782      -5.14609916       5.13522880
  C           -3.85955036      -1.77728198       3.21093411
--
  N            9.59848081     -16.32846099      -4.69340168
  N            7.46385831     -16.47056235      -1.10861384
  H            5.33084047     -13.03779955      -1.60870389
  H            7.99105428     -12.86423289      -6.00269891
  H           10.04926883     -19.39074524      -2.14439904
  H            6.71584001     -17.14960383       0.61176063
  C            6.74276451     -14.32178682      -2.32889828
  C            8.07439242     -14.25073614      -4.52346817
  C            9.16493496     -17.61955332      -2.59917348
units = au
no_com
no_reorient
}

set {
  e_convergence 10
  d_convergence 10
  scf_type df
  mp2_type df
  cc_type df
  freeze_core true
}

energy('sapt0/aug-cc-pvdz')

--------------------------------------------------------------------------

  //              Dimer HF             //
    Molecular point group: c1
  Charge       = 0
  Multiplicity = 1
  Basis Set: AUG-CC-PVDZ
    Blend: AUG-CC-PVDZ
  Basis Set: (AUG-CC-PVDZ AUX)
    Blend: AUG-CC-PVDZ-JKFIT
  @DF-RHF Final Energy:  -449.68735672342871
    Total Energy =                       -449.6873567234287066
  //            Monomer A HF           //
    Molecular point group: c1
  Multiplicity = 1
  Basis Set: AUG-CC-PVDZ
    Blend: AUG-CC-PVDZ
  Basis Set: (AUG-CC-PVDZ AUX)
    Blend: AUG-CC-PVDZ-JKFIT
  @DF-RHF Final Energy:  -224.84372254243962
    Total Energy =                       -224.8437225424396217
  //            Monomer B HF           //
    Molecular point group: c1

    Geometry (in Bohr), charge = 0, multiplicity = 1:

       Center              X                  Y                   Z               Mass
    ------------   -----------------  -----------------  -----------------  -----------------
      Gh(N)          -4.293096210000    -3.068374310000     5.305162310000    14.003074004430
      Gh(N)          -2.158473710000    -2.926272960000     1.720374480000    14.003074004430
      Gh(H)          -0.025455870000    -6.359035750000     2.220464520000     1.007825032230
      Gh(H)          -2.685669680000    -6.532602410000     6.614459540000     1.007825032230
      Gh(H)          -4.743884230000    -0.006090060000     2.756159680000     1.007825032230
      Gh(H)          -1.410455400000    -2.247231470000     0.000000000000     1.007825032230
      Gh(C)          -1.437379910000    -5.075048480000     2.940658910000    12.000000000000
      Gh(C)          -2.769007820000    -5.146099160000     5.135228800000    12.000000000000
      Gh(C)          -3.859550360000    -1.777281980000     3.210934110000    12.000000000000
         N            9.598480810000   -16.328460990000    -4.693401680000    14.003074004430
         N            7.463858310000   -16.470562350000    -1.108613840000    14.003074004430
         H            5.330840470000   -13.037799550000    -1.608703890000     1.007825032230
         H            7.991054280000   -12.864232890000    -6.002698910000     1.007825032230
         H           10.049268830000   -19.390745240000    -2.144399040000     1.007825032230
         H            6.715840010000   -17.149603830000     0.611760630000     1.007825032230
         C            6.742764510000   -14.321786820000    -2.328898280000    12.000000000000
         C            8.074392420000   -14.250736140000    -4.523468170000    12.000000000000
         C            9.164934960000   -17.619553320000    -2.599173480000    12.000000000000

  Charge       = 0
  Multiplicity = 1
  Basis Set: AUG-CC-PVDZ
    Blend: AUG-CC-PVDZ
  Basis Set: (AUG-CC-PVDZ AUX)
    Blend: AUG-CC-PVDZ-JKFIT

    Orbital Energies [Eh]
    ---------------------

    Doubly Occupied:

       1A    -15.637071     2A    -15.551215     3A    -11.300910
       4A    -11.263147     5A    -11.245652     6A     -1.352866
       7A     -1.169098     8A     -1.012098     9A     -0.824389
      10A     -0.803732    11A     -0.760667    12A     -0.610096
      13A     -0.603957    14A     -0.601927    15A     -0.570944
      16A     -0.435483    17A     -0.400465    18A     -0.320685

  @DF-RHF Final Energy:  -224.84372254356333

   => Energetics <=

    Nuclear Repulsion Energy =            164.0866958647206104
    One-Electron Energy =                -628.9320298101567914
    Two-Electron Energy =                 240.0016114018728786
    Total Energy =                       -224.8437225435633309

  Dipole Moment: [D]
     X:    -2.0434      Y:    -0.4148      Z:     3.3864     Total:     3.9768

    SAPT Results
  --------------------------------------------------------------------------------------------------------
    Electrostatics                  0.09804590 [mEh]       0.06152473 [kcal/mol]       0.25741948 [kJ/mol]
      Elst10,r                      0.09804590 [mEh]       0.06152473 [kcal/mol]       0.25741948 [kJ/mol]

    Exchange                        0.00007716 [mEh]       0.00004842 [kcal/mol]       0.00020258 [kJ/mol]
      Exch10                        0.00007716 [mEh]       0.00004842 [kcal/mol]       0.00020258 [kJ/mol]
      Exch10(S^2)                   0.00007716 [mEh]       0.00004842 [kcal/mol]       0.00020258 [kJ/mol]

    Induction                      -0.00976048 [mEh]      -0.00612480 [kcal/mol]      -0.02562615 [kJ/mol]
      Ind20,r                      -0.00987095 [mEh]      -0.00619411 [kcal/mol]      -0.02591616 [kJ/mol]
      Exch-Ind20,r                  0.00005730 [mEh]       0.00003595 [kcal/mol]       0.00015043 [kJ/mol]
      delta HF,r (2)                0.00005317 [mEh]       0.00003336 [kcal/mol]       0.00013959 [kJ/mol]

    Dispersion                     -0.07360064 [mEh]      -0.04618510 [kcal/mol]      -0.19323845 [kJ/mol]
      Disp20                       -0.07361087 [mEh]      -0.04619152 [kcal/mol]      -0.19326531 [kJ/mol]
      Exch-Disp20                   0.00001023 [mEh]       0.00000642 [kcal/mol]       0.00002686 [kJ/mol]
      Disp20 (SS)                  -0.03680543 [mEh]      -0.02309576 [kcal/mol]      -0.09663266 [kJ/mol]
      Disp20 (OS)                  -0.03680543 [mEh]      -0.02309576 [kcal/mol]      -0.09663266 [kJ/mol]
      Exch-Disp20 (SS)              0.00000822 [mEh]       0.00000516 [kcal/mol]       0.00002157 [kJ/mol]
      Exch-Disp20 (OS)              0.00000201 [mEh]       0.00000126 [kcal/mol]       0.00000529 [kJ/mol]

  Total HF                          0.08836257 [mEh]       0.05544835 [kcal/mol]       0.23199591 [kJ/mol]
  Total SAPT0                       0.01476194 [mEh]       0.00926325 [kcal/mol]       0.03875746 [kJ/mol]

  Special recipe for scaled SAPT0 (see Manual):
    Electrostatics sSAPT0           0.09804590 [mEh]       0.06152473 [kcal/mol]       0.25741948 [kJ/mol]
    Exchange sSAPT0                 0.00007716 [mEh]       0.00004842 [kcal/mol]       0.00020258 [kJ/mol]
    Induction sSAPT0               -0.00976048 [mEh]      -0.00612480 [kcal/mol]      -0.02562615 [kJ/mol]
    Dispersion sSAPT0              -0.07360064 [mEh]      -0.04618510 [kcal/mol]      -0.19323845 [kJ/mol]
  Total sSAPT0                      0.01476194 [mEh]       0.00926325 [kcal/mol]       0.03875746 [kJ/mol]
  --------------------------------------------------------------------------------------------------------

*** Psi4 exiting successfully. Buy a developer a beer!
