                               Psi4 1.4rc3

  ==> Input File <==

--------------------------------------------------------------------------
# PSI4 file produced by CrystaLattE

# Generated from:               imidazole.xyz
# Psithon input for N-mer:      2mer-0+762
# Number of atoms per monomer:  [9, 9]
# Number of replicas:           1
# COM priority:                 1.196244336483e-05
# Minimum COM separations:      23.138
# Separation priority:          2.050118270921e-05
# Minimum monomer separations:  19.335
# Cutoff priority:              5.610977857468e-07
# Nuclear repulsion energy:     357.8046624843718

memory 7 GB

molecule Dimer_0_762 {
  N           -4.29309621      -3.06837431       5.30516231
  N           -2.15847371      -2.92627296       1.72037448
  H           -0.02545587      -6.35903575       2.22046452
  H           -2.68566968      -6.53260241       6.61445954
  H           -4.74388423      -0.00609006       2.75615968
  H           -1.41045540      -2.24723147       0.00000000
  C           -1.43737991      -5.07504848       2.94065891
  C           -2.76900782      -5.14609916       5.13522880
  C           -3.85955036      -1.77728198       3.21093411
--
  N           -2.96635342     -16.32846099      43.85902949
  N           -5.10097592     -16.47056235      47.44381732
  H           -7.23399377     -13.03779955      46.94372728
  H           -4.57377995     -12.86423289      42.54973226
  H           -2.51556541     -19.39074524      46.40803212
  H           -5.84899423     -17.14960383      49.16419180
  C           -5.82206972     -14.32178682      46.22353288
  C           -4.49044181     -14.25073614      44.02896299
  C           -3.39989928     -17.61955332      45.95325768
units = au
no_com
no_reorient
}

set {
  e_convergence 10
  d_convergence 10
  scf_type df
  mp2_type df
  cc_type df
  freeze_core true
}

energy('sapt0/aug-cc-pvdz')

--------------------------------------------------------------------------

  //              Dimer HF             //
    Molecular point group: c1
  Charge       = 0
  Multiplicity = 1
  Basis Set: AUG-CC-PVDZ
    Blend: AUG-CC-PVDZ
  Basis Set: (AUG-CC-PVDZ AUX)
    Blend: AUG-CC-PVDZ-JKFIT
  @DF-RHF Final Energy:  -449.68736648001408
    Total Energy =                       -449.6873664800140773
  //            Monomer A HF           //
    Molecular point group: c1
  Multiplicity = 1
  Basis Set: AUG-CC-PVDZ
    Blend: AUG-CC-PVDZ
  Basis Set: (AUG-CC-PVDZ AUX)
    Blend: AUG-CC-PVDZ-JKFIT
  @DF-RHF Final Energy:  -224.84369627749061
    Total Energy =                       -224.8436962774906078
  //            Monomer B HF           //
    Molecular point group: c1

    Geometry (in Bohr), charge = 0, multiplicity = 1:

       Center              X                  Y                   Z               Mass
    ------------   -----------------  -----------------  -----------------  -----------------
      Gh(N)          -4.293096210000    -3.068374310000     5.305162310000    14.003074004430
      Gh(N)          -2.158473710000    -2.926272960000     1.720374480000    14.003074004430
      Gh(H)          -0.025455870000    -6.359035750000     2.220464520000     1.007825032230
      Gh(H)          -2.685669680000    -6.532602410000     6.614459540000     1.007825032230
      Gh(H)          -4.743884230000    -0.006090060000     2.756159680000     1.007825032230
      Gh(H)          -1.410455400000    -2.247231470000     0.000000000000     1.007825032230
      Gh(C)          -1.437379910000    -5.075048480000     2.940658910000    12.000000000000
      Gh(C)          -2.769007820000    -5.146099160000     5.135228800000    12.000000000000
      Gh(C)          -3.859550360000    -1.777281980000     3.210934110000    12.000000000000
         N           -2.966353420000   -16.328460990000    43.859029490000    14.003074004430
         N           -5.100975920000   -16.470562350000    47.443817320000    14.003074004430
         H           -7.233993770000   -13.037799550000    46.943727280000     1.007825032230
         H           -4.573779950000   -12.864232890000    42.549732260000     1.007825032230
         H           -2.515565410000   -19.390745240000    46.408032120000     1.007825032230
         H           -5.848994230000   -17.149603830000    49.164191800000     1.007825032230
         C           -5.822069720000   -14.321786820000    46.223532880000    12.000000000000
         C           -4.490441810000   -14.250736140000    44.028962990000    12.000000000000
         C           -3.399899280000   -17.619553320000    45.953257680000    12.000000000000

  Charge       = 0
  Multiplicity = 1
  Basis Set: AUG-CC-PVDZ
    Blend: AUG-CC-PVDZ
  Basis Set: (AUG-CC-PVDZ AUX)
    Blend: AUG-CC-PVDZ-JKFIT

    Orbital Energies [Eh]
    ---------------------

    Doubly Occupied:

       1A    -15.637071     2A    -15.551216     3A    -11.300916
       4A    -11.263160     5A    -11.245653     6A     -1.352867
       7A     -1.169098     8A     -1.012098     9A     -0.824390
      10A     -0.803731    11A     -0.760666    12A     -0.610096
      13A     -0.603958    14A     -0.601922    15A     -0.570942
      16A     -0.435483    17A     -0.400464    18A     -0.320685

  @DF-RHF Final Energy:  -224.84369627790471

   => Energetics <=

    Nuclear Repulsion Energy =            164.0866959842158224
    One-Electron Energy =                -628.9319562770836001
    Two-Electron Energy =                 240.0015640149630940
    Total Energy =                       -224.8436962779047121

  Dipole Moment: [D]
     X:    -2.0431      Y:    -0.4150      Z:     3.3867     Total:     3.9769

    SAPT Results
  --------------------------------------------------------------------------------------------------------
    Electrostatics                  0.02611162 [mEh]       0.01638529 [kcal/mol]       0.06855604 [kJ/mol]
      Elst10,r                      0.02611162 [mEh]       0.01638529 [kcal/mol]       0.06855604 [kJ/mol]

    Exchange                        0.00000000 [mEh]       0.00000000 [kcal/mol]       0.00000000 [kJ/mol]
      Exch10                        0.00000000 [mEh]       0.00000000 [kcal/mol]       0.00000000 [kJ/mol]
      Exch10(S^2)                   0.00000000 [mEh]       0.00000000 [kcal/mol]       0.00000000 [kJ/mol]

    Induction                      -0.00003623 [mEh]      -0.00002274 [kcal/mol]      -0.00009513 [kJ/mol]
      Ind20,r                      -0.00005152 [mEh]      -0.00003233 [kcal/mol]      -0.00013527 [kJ/mol]
      Exch-Ind20,r                  0.00000000 [mEh]       0.00000000 [kcal/mol]       0.00000000 [kJ/mol]
      delta HF,r (2)                0.00001529 [mEh]       0.00000959 [kcal/mol]       0.00004013 [kJ/mol]

    Dispersion                     -0.00020468 [mEh]      -0.00012844 [kcal/mol]      -0.00053738 [kJ/mol]
      Disp20                       -0.00020468 [mEh]      -0.00012844 [kcal/mol]      -0.00053738 [kJ/mol]
      Exch-Disp20                   0.00000000 [mEh]       0.00000000 [kcal/mol]       0.00000000 [kJ/mol]
      Disp20 (SS)                  -0.00010234 [mEh]      -0.00006422 [kcal/mol]      -0.00026869 [kJ/mol]
      Disp20 (OS)                  -0.00010234 [mEh]      -0.00006422 [kcal/mol]      -0.00026869 [kJ/mol]
      Exch-Disp20 (SS)              0.00000000 [mEh]       0.00000000 [kcal/mol]       0.00000000 [kJ/mol]
      Exch-Disp20 (OS)              0.00000000 [mEh]       0.00000000 [kcal/mol]       0.00000000 [kJ/mol]

  Total HF                          0.02607538 [mEh]       0.01636255 [kcal/mol]       0.06846090 [kJ/mol]
  Total SAPT0                       0.02587070 [mEh]       0.01623411 [kcal/mol]       0.06792352 [kJ/mol]

  Special recipe for scaled SAPT0 (see Manual):
    Electrostatics sSAPT0           0.02611162 [mEh]       0.01638529 [kcal/mol]       0.06855604 [kJ/mol]
    Exchange sSAPT0                 0.00000000 [mEh]       0.00000000 [kcal/mol]       0.00000000 [kJ/mol]
    Induction sSAPT0               -0.00003623 [mEh]      -0.00002274 [kcal/mol]      -0.00009513 [kJ/mol]
    Dispersion sSAPT0              -0.00020468 [mEh]      -0.00012844 [kcal/mol]      -0.00053738 [kJ/mol]
  Total sSAPT0                      0.02587070 [mEh]       0.01623411 [kcal/mol]       0.06792352 [kJ/mol]
  --------------------------------------------------------------------------------------------------------

*** Psi4 exiting successfully. Buy a developer a beer!
