                               Psi4 1.4rc3

  ==> Input File <==

--------------------------------------------------------------------------
# PSI4 file produced by CrystaLattE

# Generated from:               imidazole.xyz
# Psithon input for N-mer:      2mer-0+255
# Number of atoms per monomer:  [9, 9]
# Number of replicas:           2
# COM priority:                 1.660036910337e-05
# Minimum COM separations:      20.744
# Separation priority:          2.809377955373e-05
# Minimum monomer separations:  17.407
# Cutoff priority:              8.540439628240e-07
# Nuclear repulsion energy:     361.2342505961674

memory 7 GB

molecule Dimer_0_255 {
  N           -4.29309621      -3.06837431       5.30516231
  N           -2.15847371      -2.92627296       1.72037448
  H           -0.02545587      -6.35903575       2.22046452
  H           -2.68566968      -6.53260241       6.61445954
  H           -4.74388423      -0.00609006       2.75615968
  H           -1.41045540      -2.24723147       0.00000000
  C           -1.43737991      -5.07504848       2.94065891
  C           -2.76900782      -5.14609916       5.13522880
  C           -3.85955036      -1.77728198       3.21093411
--
  N           14.51737116      29.34697536      -2.78690955
  N           16.65199366      29.20487400      -6.37169738
  H           18.78501151      32.63763679      -5.87160734
  H           16.12479769      32.81120345      -1.47761232
  H           14.06658315      26.28469110      -5.33591219
  H           17.40001197      28.52583251      -8.09207186
  C           17.37308746      31.35364953      -5.15141295
  C           16.04145955      31.42470020      -2.95684306
  C           14.95091701      28.05588302      -4.88113775
units = au
no_com
no_reorient
}

set {
  e_convergence 10
  d_convergence 10
  scf_type df
  mp2_type df
  cc_type df
  freeze_core true
}

energy('sapt0/aug-cc-pvdz')

--------------------------------------------------------------------------

  //              Dimer HF             //
    Molecular point group: c1
  Charge       = 0
  Multiplicity = 1
  Basis Set: AUG-CC-PVDZ
    Blend: AUG-CC-PVDZ
  Basis Set: (AUG-CC-PVDZ AUX)
    Blend: AUG-CC-PVDZ-JKFIT
  @DF-RHF Final Energy:  -449.68736515950786
    Total Energy =                       -449.6873651595078627
  //            Monomer A HF           //
    Molecular point group: c1
  Multiplicity = 1
  Basis Set: AUG-CC-PVDZ
    Blend: AUG-CC-PVDZ
  Basis Set: (AUG-CC-PVDZ AUX)
    Blend: AUG-CC-PVDZ-JKFIT
  @DF-RHF Final Energy:  -224.84369627708412
    Total Energy =                       -224.8436962770841205
  //            Monomer B HF           //
    Molecular point group: c1

    Geometry (in Bohr), charge = 0, multiplicity = 1:

       Center              X                  Y                   Z               Mass
    ------------   -----------------  -----------------  -----------------  -----------------
      Gh(N)          -4.293096210000    -3.068374310000     5.305162310000    14.003074004430
      Gh(N)          -2.158473710000    -2.926272960000     1.720374480000    14.003074004430
      Gh(H)          -0.025455870000    -6.359035750000     2.220464520000     1.007825032230
      Gh(H)          -2.685669680000    -6.532602410000     6.614459540000     1.007825032230
      Gh(H)          -4.743884230000    -0.006090060000     2.756159680000     1.007825032230
      Gh(H)          -1.410455400000    -2.247231470000     0.000000000000     1.007825032230
      Gh(C)          -1.437379910000    -5.075048480000     2.940658910000    12.000000000000
      Gh(C)          -2.769007820000    -5.146099160000     5.135228800000    12.000000000000
      Gh(C)          -3.859550360000    -1.777281980000     3.210934110000    12.000000000000
         N           14.517371160000    29.346975360000    -2.786909550000    14.003074004430
         N           16.651993660000    29.204874000000    -6.371697380000    14.003074004430
         H           18.785011510000    32.637636790000    -5.871607340000     1.007825032230
         H           16.124797690000    32.811203450000    -1.477612320000     1.007825032230
         H           14.066583150000    26.284691100000    -5.335912190000     1.007825032230
         H           17.400011970000    28.525832510000    -8.092071860000     1.007825032230
         C           17.373087460000    31.353649530000    -5.151412950000    12.000000000000
         C           16.041459550000    31.424700200000    -2.956843060000    12.000000000000
         C           14.950917010000    28.055883020000    -4.881137750000    12.000000000000

  Charge       = 0
  Multiplicity = 1
  Basis Set: AUG-CC-PVDZ
    Blend: AUG-CC-PVDZ
  Basis Set: (AUG-CC-PVDZ AUX)
    Blend: AUG-CC-PVDZ-JKFIT

    Orbital Energies [Eh]
    ---------------------

    Doubly Occupied:

       1A    -15.637071     2A    -15.551216     3A    -11.300916
       4A    -11.263160     5A    -11.245653     6A     -1.352867
       7A     -1.169098     8A     -1.012098     9A     -0.824390
      10A     -0.803731    11A     -0.760666    12A     -0.610096
      13A     -0.603958    14A     -0.601922    15A     -0.570942
      16A     -0.435483    17A     -0.400464    18A     -0.320685

  @DF-RHF Final Energy:  -224.84369627801161

   => Energetics <=

    Nuclear Repulsion Energy =            164.0866959368516689
    One-Electron Energy =                -628.9319561840065944
    Two-Electron Energy =                 240.0015639691432909
    Total Energy =                       -224.8436962780116062

  Dipole Moment: [D]
     X:     2.0431      Y:    -0.4150      Z:    -3.3867     Total:     3.9769

    SAPT Results
  --------------------------------------------------------------------------------------------------------
    Electrostatics                  0.02745401 [mEh]       0.01722765 [kcal/mol]       0.07208048 [kJ/mol]
      Elst10,r                      0.02745401 [mEh]       0.01722765 [kcal/mol]       0.07208048 [kJ/mol]

    Exchange                       -0.00000000 [mEh]      -0.00000000 [kcal/mol]      -0.00000000 [kJ/mol]
      Exch10                       -0.00000000 [mEh]      -0.00000000 [kcal/mol]      -0.00000000 [kJ/mol]
      Exch10(S^2)                  -0.00000000 [mEh]      -0.00000000 [kcal/mol]      -0.00000000 [kJ/mol]

    Induction                      -0.00005842 [mEh]      -0.00003666 [kcal/mol]      -0.00015338 [kJ/mol]
      Ind20,r                      -0.00006250 [mEh]      -0.00003922 [kcal/mol]      -0.00016410 [kJ/mol]
      Exch-Ind20,r                  0.00000000 [mEh]       0.00000000 [kcal/mol]       0.00000000 [kJ/mol]
      delta HF,r (2)                0.00000409 [mEh]       0.00000256 [kcal/mol]       0.00001073 [kJ/mol]

    Dispersion                     -0.00035352 [mEh]      -0.00022184 [kcal/mol]      -0.00092816 [kJ/mol]
      Disp20                       -0.00035352 [mEh]      -0.00022184 [kcal/mol]      -0.00092816 [kJ/mol]
      Exch-Disp20                   0.00000000 [mEh]       0.00000000 [kcal/mol]       0.00000000 [kJ/mol]
      Disp20 (SS)                  -0.00017676 [mEh]      -0.00011092 [kcal/mol]      -0.00046408 [kJ/mol]
      Disp20 (OS)                  -0.00017676 [mEh]      -0.00011092 [kcal/mol]      -0.00046408 [kJ/mol]
      Exch-Disp20 (SS)              0.00000000 [mEh]       0.00000000 [kcal/mol]       0.00000000 [kJ/mol]
      Exch-Disp20 (OS)              0.00000000 [mEh]       0.00000000 [kcal/mol]       0.00000000 [kJ/mol]

  Total HF                          0.02739559 [mEh]       0.01719099 [kcal/mol]       0.07192711 [kJ/mol]
  Total SAPT0                       0.02704207 [mEh]       0.01696916 [kcal/mol]       0.07099895 [kJ/mol]

  Special recipe for scaled SAPT0 (see Manual):
    Electrostatics sSAPT0           0.02745401 [mEh]       0.01722765 [kcal/mol]       0.07208048 [kJ/mol]
    Exchange sSAPT0                -0.00000000 [mEh]      -0.00000000 [kcal/mol]      -0.00000000 [kJ/mol]
    Induction sSAPT0               -0.00005842 [mEh]      -0.00003666 [kcal/mol]      -0.00015338 [kJ/mol]
    Dispersion sSAPT0              -0.00035352 [mEh]      -0.00022184 [kcal/mol]      -0.00092816 [kJ/mol]
  Total sSAPT0                      0.02704207 [mEh]       0.01696916 [kcal/mol]       0.07099895 [kJ/mol]
  --------------------------------------------------------------------------------------------------------

*** Psi4 exiting successfully. Buy a developer a beer!
