                               Psi4 1.4rc3

  ==> Input File <==

--------------------------------------------------------------------------
# PSI4 file produced by CrystaLattE

# Generated from:               imidazole.xyz
# Psithon input for N-mer:      2mer-0+256
# Number of atoms per monomer:  [9, 9]
# Number of replicas:           2
# COM priority:                 2.890225756271e-05
# Minimum COM separations:      17.243
# Separation priority:          3.034720164839e-05
# Minimum monomer separations:  16.965
# Cutoff priority:              9.465819102770e-07
# Nuclear repulsion energy:     367.7299767307919

memory 7 GB

molecule Dimer_0_256 {
  N           -4.29309621      -3.06837431       5.30516231
  N           -2.15847371      -2.92627296       1.72037448
  H           -0.02545587      -6.35903575       2.22046452
  H           -2.68566968      -6.53260241       6.61445954
  H           -4.74388423      -0.00609006       2.75615968
  H           -1.41045540      -2.24723147       0.00000000
  C           -1.43737991      -5.07504848       2.94065891
  C           -2.76900782      -5.14609916       5.13522880
  C           -3.85955036      -1.77728198       3.21093411
--
  N           15.39909476      17.23181962      21.48930603
  N           17.53371726      17.37392098      17.90451820
  H           19.66673510      13.94115818      18.40460824
  H           17.00652129      13.76759152      22.79860326
  H           14.94830674      20.29410387      18.94030340
  H           18.28173556      18.05296246      16.18414372
  C           18.25481106      15.22514545      19.12480264
  C           16.92318315      15.15409477      21.31937252
  C           15.83264061      18.52291195      19.39507784
units = au
no_com
no_reorient
}

set {
  e_convergence 10
  d_convergence 10
  scf_type df
  mp2_type df
  cc_type df
  freeze_core true
}

energy('sapt0/aug-cc-pvdz')

--------------------------------------------------------------------------

  //              Dimer HF             //
    Molecular point group: c1
  Charge       = 0
  Multiplicity = 1
  Basis Set: AUG-CC-PVDZ
    Blend: AUG-CC-PVDZ
  Basis Set: (AUG-CC-PVDZ AUX)
    Blend: AUG-CC-PVDZ-JKFIT
  @DF-RHF Final Energy:  -449.68732207566825
    Total Energy =                       -449.6873220756682485
  //            Monomer A HF           //
    Molecular point group: c1
  Multiplicity = 1
  Basis Set: AUG-CC-PVDZ
    Blend: AUG-CC-PVDZ
  Basis Set: (AUG-CC-PVDZ AUX)
    Blend: AUG-CC-PVDZ-JKFIT
  @DF-RHF Final Energy:  -224.84369627901816
    Total Energy =                       -224.8436962790181610
  //            Monomer B HF           //
    Molecular point group: c1

    Geometry (in Bohr), charge = 0, multiplicity = 1:

       Center              X                  Y                   Z               Mass
    ------------   -----------------  -----------------  -----------------  -----------------
      Gh(N)          -4.293096210000    -3.068374310000     5.305162310000    14.003074004430
      Gh(N)          -2.158473710000    -2.926272960000     1.720374480000    14.003074004430
      Gh(H)          -0.025455870000    -6.359035750000     2.220464520000     1.007825032230
      Gh(H)          -2.685669680000    -6.532602410000     6.614459540000     1.007825032230
      Gh(H)          -4.743884230000    -0.006090060000     2.756159680000     1.007825032230
      Gh(H)          -1.410455400000    -2.247231470000     0.000000000000     1.007825032230
      Gh(C)          -1.437379910000    -5.075048480000     2.940658910000    12.000000000000
      Gh(C)          -2.769007820000    -5.146099160000     5.135228800000    12.000000000000
      Gh(C)          -3.859550360000    -1.777281980000     3.210934110000    12.000000000000
         N           15.399094760000    17.231819620000    21.489306030000    14.003074004430
         N           17.533717260000    17.373920980000    17.904518200000    14.003074004430
         H           19.666735100000    13.941158180000    18.404608240000     1.007825032230
         H           17.006521290000    13.767591520000    22.798603260000     1.007825032230
         H           14.948306740000    20.294103870000    18.940303400000     1.007825032230
         H           18.281735560000    18.052962460000    16.184143720000     1.007825032230
         C           18.254811060000    15.225145450000    19.124802640000    12.000000000000
         C           16.923183150000    15.154094770000    21.319372520000    12.000000000000
         C           15.832640610000    18.522911950000    19.395077840000    12.000000000000

  Charge       = 0
  Multiplicity = 1
  Basis Set: AUG-CC-PVDZ
    Blend: AUG-CC-PVDZ
  Basis Set: (AUG-CC-PVDZ AUX)
    Blend: AUG-CC-PVDZ-JKFIT

    Orbital Energies [Eh]
    ---------------------

    Doubly Occupied:

       1A    -15.637071     2A    -15.551216     3A    -11.300916
       4A    -11.263160     5A    -11.245653     6A     -1.352867
       7A     -1.169098     8A     -1.012098     9A     -0.824390
      10A     -0.803731    11A     -0.760666    12A     -0.610096
      13A     -0.603958    14A     -0.601922    15A     -0.570942
      16A     -0.435483    17A     -0.400464    18A     -0.320685

  @DF-RHF Final Energy:  -224.84369628026150

   => Energetics <=

    Nuclear Repulsion Energy =            164.0866960196617299
    One-Electron Energy =                -628.9319563610847581
    Two-Electron Energy =                 240.0015640611615027
    Total Energy =                       -224.8436962802614971

  Dipole Moment: [D]
     X:     2.0431      Y:     0.4150      Z:    -3.3867     Total:     3.9769

    SAPT Results
  --------------------------------------------------------------------------------------------------------
    Electrostatics                  0.07057832 [mEh]       0.04428856 [kcal/mol]       0.18530335 [kJ/mol]
      Elst10,r                      0.07057832 [mEh]       0.04428856 [kcal/mol]       0.18530335 [kJ/mol]

    Exchange                        0.00000000 [mEh]       0.00000000 [kcal/mol]       0.00000000 [kJ/mol]
      Exch10                        0.00000000 [mEh]       0.00000000 [kcal/mol]       0.00000000 [kJ/mol]
      Exch10(S^2)                   0.00000000 [mEh]       0.00000000 [kcal/mol]       0.00000000 [kJ/mol]

    Induction                      -0.00009471 [mEh]      -0.00005943 [kcal/mol]      -0.00024865 [kJ/mol]
      Ind20,r                      -0.00010805 [mEh]      -0.00006780 [kcal/mol]      -0.00028368 [kJ/mol]
      Exch-Ind20,r                  0.00000000 [mEh]       0.00000000 [kcal/mol]       0.00000000 [kJ/mol]
      delta HF,r (2)                0.00001334 [mEh]       0.00000837 [kcal/mol]       0.00003503 [kJ/mol]

    Dispersion                     -0.00084197 [mEh]      -0.00052834 [kcal/mol]      -0.00221059 [kJ/mol]
      Disp20                       -0.00084197 [mEh]      -0.00052834 [kcal/mol]      -0.00221059 [kJ/mol]
      Exch-Disp20                   0.00000000 [mEh]       0.00000000 [kcal/mol]       0.00000000 [kJ/mol]
      Disp20 (SS)                  -0.00042098 [mEh]      -0.00026417 [kcal/mol]      -0.00110529 [kJ/mol]
      Disp20 (OS)                  -0.00042098 [mEh]      -0.00026417 [kcal/mol]      -0.00110529 [kJ/mol]
      Exch-Disp20 (SS)              0.00000000 [mEh]       0.00000000 [kcal/mol]       0.00000000 [kJ/mol]
      Exch-Disp20 (OS)              0.00000000 [mEh]       0.00000000 [kcal/mol]       0.00000000 [kJ/mol]

  Total HF                          0.07048361 [mEh]       0.04422913 [kcal/mol]       0.18505470 [kJ/mol]
  Total SAPT0                       0.06964164 [mEh]       0.04370079 [kcal/mol]       0.18284411 [kJ/mol]

  Special recipe for scaled SAPT0 (see Manual):
    Electrostatics sSAPT0           0.07057832 [mEh]       0.04428856 [kcal/mol]       0.18530335 [kJ/mol]
    Exchange sSAPT0                 0.00000000 [mEh]       0.00000000 [kcal/mol]       0.00000000 [kJ/mol]
    Induction sSAPT0               -0.00009471 [mEh]      -0.00005943 [kcal/mol]      -0.00024865 [kJ/mol]
    Dispersion sSAPT0              -0.00084197 [mEh]      -0.00052834 [kcal/mol]      -0.00221059 [kJ/mol]
  Total sSAPT0                      0.06964164 [mEh]       0.04370079 [kcal/mol]       0.18284411 [kJ/mol]
  --------------------------------------------------------------------------------------------------------

*** Psi4 exiting successfully. Buy a developer a beer!
