                               Psi4 1.4rc3

  ==> Input File <==

--------------------------------------------------------------------------
# PSI4 file produced by CrystaLattE

# Generated from:               imidazole.xyz
# Psithon input for N-mer:      2mer-0+232
# Number of atoms per monomer:  [9, 9]
# Number of replicas:           2
# COM priority:                 2.220464419819e-05
# Minimum COM separations:      18.827
# Separation priority:          4.094894778537e-05
# Minimum monomer separations:  15.353
# Cutoff priority:              1.411422367447e-06
# Nuclear repulsion energy:     364.6279510152144

memory 7 GB

molecule Dimer_0_232 {
  N           -4.29309621      -3.06837431       5.30516231
  N           -2.15847371      -2.92627296       1.72037448
  H           -0.02545587      -6.35903575       2.22046452
  H           -2.68566968      -6.53260241       6.61445954
  H           -4.74388423      -0.00609006       2.75615968
  H           -1.41045540      -2.24723147       0.00000000
  C           -1.43737991      -5.07504848       2.94065891
  C           -2.76900782      -5.14609916       5.13522880
  C           -3.85955036      -1.77728198       3.21093411
--
  N          -15.02091529       7.08172265     -27.06312513
  N          -12.88629279       7.22382401     -30.64791297
  H          -10.75327495       3.79106122     -30.14782292
  H          -13.41348876       3.61749456     -25.75382790
  H          -15.47170331      10.14400691     -29.61212777
  H          -12.13827448       7.90286550     -32.36828744
  C          -12.16519899       5.07504848     -29.42762853
  C          -13.49682690       5.00399780     -27.23305864
  C          -14.58736944       8.37281499     -29.15735333
units = au
no_com
no_reorient
}

set {
  e_convergence 10
  d_convergence 10
  scf_type df
  mp2_type df
  cc_type df
  freeze_core true
}

energy('sapt0/aug-cc-pvdz')

--------------------------------------------------------------------------

  //              Dimer HF             //
    Molecular point group: c1
  Charge       = 0
  Multiplicity = 1
  Basis Set: AUG-CC-PVDZ
    Blend: AUG-CC-PVDZ
  Basis Set: (AUG-CC-PVDZ AUX)
    Blend: AUG-CC-PVDZ-JKFIT
  @DF-RHF Final Energy:  -449.68740651506863
    Total Energy =                       -449.6874065150685738
  //            Monomer A HF           //
    Molecular point group: c1
  Multiplicity = 1
  Basis Set: AUG-CC-PVDZ
    Blend: AUG-CC-PVDZ
  Basis Set: (AUG-CC-PVDZ AUX)
    Blend: AUG-CC-PVDZ-JKFIT
  @DF-RHF Final Energy:  -224.84369627776474
    Total Energy =                       -224.8436962777647352
  //            Monomer B HF           //
    Molecular point group: c1

    Geometry (in Bohr), charge = 0, multiplicity = 1:

       Center              X                  Y                   Z               Mass
    ------------   -----------------  -----------------  -----------------  -----------------
      Gh(N)          -4.293096210000    -3.068374310000     5.305162310000    14.003074004430
      Gh(N)          -2.158473710000    -2.926272960000     1.720374480000    14.003074004430
      Gh(H)          -0.025455870000    -6.359035750000     2.220464520000     1.007825032230
      Gh(H)          -2.685669680000    -6.532602410000     6.614459540000     1.007825032230
      Gh(H)          -4.743884230000    -0.006090060000     2.756159680000     1.007825032230
      Gh(H)          -1.410455400000    -2.247231470000     0.000000000000     1.007825032230
      Gh(C)          -1.437379910000    -5.075048480000     2.940658910000    12.000000000000
      Gh(C)          -2.769007820000    -5.146099160000     5.135228800000    12.000000000000
      Gh(C)          -3.859550360000    -1.777281980000     3.210934110000    12.000000000000
         N          -15.020915290000     7.081722650000   -27.063125130000    14.003074004430
         N          -12.886292790000     7.223824010000   -30.647912970000    14.003074004430
         H          -10.753274950000     3.791061220000   -30.147822920000     1.007825032230
         H          -13.413488760000     3.617494560000   -25.753827900000     1.007825032230
         H          -15.471703310000    10.144006910000   -29.612127770000     1.007825032230
         H          -12.138274480000     7.902865500000   -32.368287440000     1.007825032230
         C          -12.165198990000     5.075048480000   -29.427628530000    12.000000000000
         C          -13.496826900000     5.003997800000   -27.233058640000    12.000000000000
         C          -14.587369440000     8.372814990000   -29.157353330000    12.000000000000

  Charge       = 0
  Multiplicity = 1
  Basis Set: AUG-CC-PVDZ
    Blend: AUG-CC-PVDZ
  Basis Set: (AUG-CC-PVDZ AUX)
    Blend: AUG-CC-PVDZ-JKFIT

    Orbital Energies [Eh]
    ---------------------

    Doubly Occupied:

       1A    -15.637071     2A    -15.551216     3A    -11.300916
       4A    -11.263160     5A    -11.245653     6A     -1.352867
       7A     -1.169098     8A     -1.012098     9A     -0.824390
      10A     -0.803731    11A     -0.760666    12A     -0.610096
      13A     -0.603958    14A     -0.601922    15A     -0.570942
      16A     -0.435483    17A     -0.400464    18A     -0.320685

  @DF-RHF Final Energy:  -224.84369627902007

   => Energetics <=

    Nuclear Repulsion Energy =            164.0866957661907861
    One-Electron Energy =                -628.9319558489255542
    Two-Electron Energy =                 240.0015638037146743
    Total Energy =                       -224.8436962790200653

  Dipole Moment: [D]
     X:     2.0431      Y:     0.4150      Z:    -3.3867     Total:     3.9769

    SAPT Results
  --------------------------------------------------------------------------------------------------------
    Electrostatics                 -0.01382718 [mEh]      -0.00867668 [kcal/mol]      -0.03630325 [kJ/mol]
      Elst10,r                     -0.01382718 [mEh]      -0.00867668 [kcal/mol]      -0.03630325 [kJ/mol]

    Exchange                        0.00000000 [mEh]       0.00000000 [kcal/mol]       0.00000000 [kJ/mol]
      Exch10                        0.00000000 [mEh]       0.00000000 [kcal/mol]       0.00000000 [kJ/mol]
      Exch10(S^2)                   0.00000000 [mEh]       0.00000000 [kcal/mol]       0.00000000 [kJ/mol]

    Induction                      -0.00013111 [mEh]      -0.00008227 [kcal/mol]      -0.00034422 [kJ/mol]
      Ind20,r                      -0.00012692 [mEh]      -0.00007964 [kcal/mol]      -0.00033322 [kJ/mol]
      Exch-Ind20,r                  0.00000000 [mEh]       0.00000000 [kcal/mol]       0.00000000 [kJ/mol]
      delta HF,r (2)               -0.00000419 [mEh]      -0.00000263 [kcal/mol]      -0.00001100 [kJ/mol]

    Dispersion                     -0.00065618 [mEh]      -0.00041176 [kcal/mol]      -0.00172281 [kJ/mol]
      Disp20                       -0.00065618 [mEh]      -0.00041176 [kcal/mol]      -0.00172281 [kJ/mol]
      Exch-Disp20                   0.00000000 [mEh]       0.00000000 [kcal/mol]       0.00000000 [kJ/mol]
      Disp20 (SS)                  -0.00032809 [mEh]      -0.00020588 [kcal/mol]      -0.00086140 [kJ/mol]
      Disp20 (OS)                  -0.00032809 [mEh]      -0.00020588 [kcal/mol]      -0.00086140 [kJ/mol]
      Exch-Disp20 (SS)              0.00000000 [mEh]       0.00000000 [kcal/mol]       0.00000000 [kJ/mol]
      Exch-Disp20 (OS)              0.00000000 [mEh]       0.00000000 [kcal/mol]       0.00000000 [kJ/mol]

  Total HF                         -0.01395828 [mEh]      -0.00875896 [kcal/mol]      -0.03664747 [kJ/mol]
  Total SAPT0                      -0.01461447 [mEh]      -0.00917072 [kcal/mol]      -0.03837027 [kJ/mol]

  Special recipe for scaled SAPT0 (see Manual):
    Electrostatics sSAPT0          -0.01382718 [mEh]      -0.00867668 [kcal/mol]      -0.03630325 [kJ/mol]
    Exchange sSAPT0                 0.00000000 [mEh]       0.00000000 [kcal/mol]       0.00000000 [kJ/mol]
    Induction sSAPT0               -0.00013111 [mEh]      -0.00008227 [kcal/mol]      -0.00034422 [kJ/mol]
    Dispersion sSAPT0              -0.00065618 [mEh]      -0.00041176 [kcal/mol]      -0.00172281 [kJ/mol]
  Total sSAPT0                     -0.01461447 [mEh]      -0.00917072 [kcal/mol]      -0.03837027 [kJ/mol]
  --------------------------------------------------------------------------------------------------------

*** Psi4 exiting successfully. Buy a developer a beer!
