                               Psi4 1.4rc3

  ==> Input File <==

--------------------------------------------------------------------------
# PSI4 file produced by CrystaLattE

# Generated from:               imidazole.xyz
# Psithon input for N-mer:      2mer-0+33
# Number of atoms per monomer:  [9, 9]
# Number of replicas:           2
# COM priority:                 3.196991997345e-04
# Minimum COM separations:      7.739
# Separation priority:          6.495233284359e-04
# Minimum monomer separations:  6.110
# Cutoff priority:              5.625049370403e-05
# Nuclear repulsion energy:     415.78996144712244

memory 7 GB

molecule Dimer_0_33 {
  N           -4.29309621      -3.06837431       5.30516231
  N           -2.15847371      -2.92627296       1.72037448
  H           -0.02545587      -6.35903575       2.22046452
  H           -2.68566968      -6.53260241       6.61445954
  H           -4.74388423      -0.00609006       2.75615968
  H           -1.41045540      -2.24723147       0.00000000
  C           -1.43737991      -5.07504848       2.94065891
  C           -2.76900782      -5.14609916       5.13522880
  C           -3.85955036      -1.77728198       3.21093411
--
  N          -14.13919170     -11.25341251      -2.78690955
  N          -12.00456920     -11.39551386      -6.37169738
  H           -9.87155135      -7.96275107      -5.87160734
  H          -12.53176517      -7.78918441      -1.47761232
  H          -14.58997971     -14.31569676      -5.33591219
  H          -11.25655089     -12.07455535      -8.09207186
  C          -11.28347540      -9.24673834      -5.15141295
  C          -12.61510330      -9.17568766      -2.95684306
  C          -13.70564584     -12.54450484      -4.88113775
units = au
no_com
no_reorient
}

set {
  e_convergence 10
  d_convergence 10
  scf_type df
  mp2_type df
  cc_type df
  freeze_core true
}

energy('sapt0/aug-cc-pvdz')

--------------------------------------------------------------------------

  //              Dimer HF             //
    Molecular point group: c1
  Charge       = 0
  Multiplicity = 1
  Basis Set: AUG-CC-PVDZ
    Blend: AUG-CC-PVDZ
  Basis Set: (AUG-CC-PVDZ AUX)
    Blend: AUG-CC-PVDZ-JKFIT
  @DF-RHF Final Energy:  -449.68693094566561
    Total Energy =                       -449.6869309456656083
  //            Monomer A HF           //
    Molecular point group: c1
  Multiplicity = 1
  Basis Set: AUG-CC-PVDZ
    Blend: AUG-CC-PVDZ
  Basis Set: (AUG-CC-PVDZ AUX)
    Blend: AUG-CC-PVDZ-JKFIT
  @DF-RHF Final Energy:  -224.84372118068262
    Total Energy =                       -224.8437211806826213
  //            Monomer B HF           //
    Molecular point group: c1

    Geometry (in Bohr), charge = 0, multiplicity = 1:

       Center              X                  Y                   Z               Mass
    ------------   -----------------  -----------------  -----------------  -----------------
      Gh(N)          -4.293096210000    -3.068374310000     5.305162310000    14.003074004430
      Gh(N)          -2.158473710000    -2.926272960000     1.720374480000    14.003074004430
      Gh(H)          -0.025455870000    -6.359035750000     2.220464520000     1.007825032230
      Gh(H)          -2.685669680000    -6.532602410000     6.614459540000     1.007825032230
      Gh(H)          -4.743884230000    -0.006090060000     2.756159680000     1.007825032230
      Gh(H)          -1.410455400000    -2.247231470000     0.000000000000     1.007825032230
      Gh(C)          -1.437379910000    -5.075048480000     2.940658910000    12.000000000000
      Gh(C)          -2.769007820000    -5.146099160000     5.135228800000    12.000000000000
      Gh(C)          -3.859550360000    -1.777281980000     3.210934110000    12.000000000000
         N          -14.139191700000   -11.253412510000    -2.786909550000    14.003074004430
         N          -12.004569200000   -11.395513860000    -6.371697380000    14.003074004430
         H           -9.871551350000    -7.962751070000    -5.871607340000     1.007825032230
         H          -12.531765170000    -7.789184410000    -1.477612320000     1.007825032230
         H          -14.589979710000   -14.315696760000    -5.335912190000     1.007825032230
         H          -11.256550890000   -12.074555350000    -8.092071860000     1.007825032230
         C          -11.283475400000    -9.246738340000    -5.151412950000    12.000000000000
         C          -12.615103300000    -9.175687660000    -2.956843060000    12.000000000000
         C          -13.705645840000   -12.544504840000    -4.881137750000    12.000000000000

  Charge       = 0
  Multiplicity = 1
  Basis Set: AUG-CC-PVDZ
    Blend: AUG-CC-PVDZ
  Basis Set: (AUG-CC-PVDZ AUX)
    Blend: AUG-CC-PVDZ-JKFIT

    Orbital Energies [Eh]
    ---------------------

    Doubly Occupied:

       1A    -15.637078     2A    -15.551219     3A    -11.300920
       4A    -11.263164     5A    -11.245654     6A     -1.352873
       7A     -1.169104     8A     -1.012104     9A     -0.824394
      10A     -0.803738    11A     -0.760674    12A     -0.610101
      13A     -0.603961    14A     -0.601930    15A     -0.570950
      16A     -0.435486    17A     -0.400469    18A     -0.320690

  @DF-RHF Final Energy:  -224.84371659944159

   => Energetics <=

    Nuclear Repulsion Energy =            164.0866960224558397
    One-Electron Energy =                -628.9318050508160240
    Two-Electron Energy =                 240.0013924289185923
    Total Energy =                       -224.8437165994415921

  Dipole Moment: [D]
     X:     2.0443      Y:    -0.4138      Z:    -3.3862     Total:     3.9770

    SAPT Results
  --------------------------------------------------------------------------------------------------------
    Electrostatics                  0.51973433 [mEh]       0.32613822 [kcal/mol]       1.36456231 [kJ/mol]
      Elst10,r                      0.51973433 [mEh]       0.32613822 [kcal/mol]       1.36456231 [kJ/mol]

    Exchange                        0.00011713 [mEh]       0.00007350 [kcal/mol]       0.00030753 [kJ/mol]
      Exch10                        0.00011713 [mEh]       0.00007350 [kcal/mol]       0.00030753 [kJ/mol]
      Exch10(S^2)                   0.00011713 [mEh]       0.00007350 [kcal/mol]       0.00030753 [kJ/mol]

    Induction                      -0.01301701 [mEh]      -0.00816830 [kcal/mol]      -0.03417615 [kJ/mol]
      Ind20,r                      -0.01333305 [mEh]      -0.00836661 [kcal/mol]      -0.03500591 [kJ/mol]
      Exch-Ind20,r                  0.00006559 [mEh]       0.00004116 [kcal/mol]       0.00017222 [kJ/mol]
      delta HF,r (2)                0.00025044 [mEh]       0.00015716 [kcal/mol]       0.00065754 [kJ/mol]

    Dispersion                     -0.14108470 [mEh]      -0.08853198 [kcal/mol]      -0.37041782 [kJ/mol]
      Disp20                       -0.14114581 [mEh]      -0.08857033 [kcal/mol]      -0.37057827 [kJ/mol]
      Exch-Disp20                   0.00006111 [mEh]       0.00003835 [kcal/mol]       0.00016045 [kJ/mol]
      Disp20 (SS)                  -0.07057290 [mEh]      -0.04428517 [kcal/mol]      -0.18528913 [kJ/mol]
      Disp20 (OS)                  -0.07057290 [mEh]      -0.04428517 [kcal/mol]      -0.18528913 [kJ/mol]
      Exch-Disp20 (SS)              0.00004567 [mEh]       0.00002866 [kcal/mol]       0.00011991 [kJ/mol]
      Exch-Disp20 (OS)              0.00001544 [mEh]       0.00000969 [kcal/mol]       0.00004054 [kJ/mol]

  Total HF                          0.50683446 [mEh]       0.31804342 [kcal/mol]       1.33069369 [kJ/mol]
  Total SAPT0                       0.36574976 [mEh]       0.22951144 [kcal/mol]       0.96027587 [kJ/mol]

  Special recipe for scaled SAPT0 (see Manual):
    Electrostatics sSAPT0           0.51973433 [mEh]       0.32613822 [kcal/mol]       1.36456231 [kJ/mol]
    Exchange sSAPT0                 0.00011713 [mEh]       0.00007350 [kcal/mol]       0.00030753 [kJ/mol]
    Induction sSAPT0               -0.01301701 [mEh]      -0.00816830 [kcal/mol]      -0.03417615 [kJ/mol]
    Dispersion sSAPT0              -0.14108470 [mEh]      -0.08853198 [kcal/mol]      -0.37041782 [kJ/mol]
  Total sSAPT0                      0.36574976 [mEh]       0.22951144 [kcal/mol]       0.96027587 [kJ/mol]
  --------------------------------------------------------------------------------------------------------

*** Psi4 exiting successfully. Buy a developer a beer!
