                               Psi4 1.4rc3

  ==> Input File <==

--------------------------------------------------------------------------
# PSI4 file produced by CrystaLattE

# Generated from:               imidazole.xyz
# Psithon input for N-mer:      2mer-0+198
# Number of atoms per monomer:  [9, 9]
# Number of replicas:           2
# COM priority:                 2.160253604008e-05
# Minimum COM separations:      19.001
# Separation priority:          4.198138732331e-05
# Minimum monomer separations:  15.226
# Cutoff priority:              1.459068612438e-06
# Nuclear repulsion energy:     364.42182535597

memory 7 GB

molecule Dimer_0_198 {
  N           -4.29309621      -3.06837431       5.30516231
  N           -2.15847371      -2.92627296       1.72037448
  H           -0.02545587      -6.35903575       2.22046452
  H           -2.68566968      -6.53260241       6.61445954
  H           -4.74388423      -0.00609006       2.75615968
  H           -1.41045540      -2.24723147       0.00000000
  C           -1.43737991      -5.07504848       2.94065891
  C           -2.76900782      -5.14609916       5.13522880
  C           -3.85955036      -1.77728198       3.21093411
--
  N            8.71675722      12.15677114     -28.96961726
  N            6.58213472      12.29887249     -25.38482943
  H            4.44911687       8.86610970     -25.88491947
  H            7.10933069       8.69254304     -30.27891449
  H            9.16754523      15.21905539     -26.42061463
  H            5.83411641      12.97791398     -23.66445495
  C            5.86104092      10.15009697     -26.60511386
  C            7.19266883      10.07904629     -28.79968375
  C            8.28321136      13.44786347     -26.87538906
units = au
no_com
no_reorient
}

set {
  e_convergence 10
  d_convergence 10
  scf_type df
  mp2_type df
  cc_type df
  freeze_core true
}

energy('sapt0/aug-cc-pvdz')

--------------------------------------------------------------------------

  //              Dimer HF             //
    Molecular point group: c1
  Charge       = 0
  Multiplicity = 1
  Basis Set: AUG-CC-PVDZ
    Blend: AUG-CC-PVDZ
  Basis Set: (AUG-CC-PVDZ AUX)
    Blend: AUG-CC-PVDZ-JKFIT
  @DF-RHF Final Energy:  -449.68731520121662
    Total Energy =                       -449.6873152012166202
  //            Monomer A HF           //
    Molecular point group: c1
  Multiplicity = 1
  Basis Set: AUG-CC-PVDZ
    Blend: AUG-CC-PVDZ
  Basis Set: (AUG-CC-PVDZ AUX)
    Blend: AUG-CC-PVDZ-JKFIT
  @DF-RHF Final Energy:  -224.84369627875813
    Total Energy =                       -224.8436962787581308
  //            Monomer B HF           //
    Molecular point group: c1

    Geometry (in Bohr), charge = 0, multiplicity = 1:

       Center              X                  Y                   Z               Mass
    ------------   -----------------  -----------------  -----------------  -----------------
      Gh(N)          -4.293096210000    -3.068374310000     5.305162310000    14.003074004430
      Gh(N)          -2.158473710000    -2.926272960000     1.720374480000    14.003074004430
      Gh(H)          -0.025455870000    -6.359035750000     2.220464520000     1.007825032230
      Gh(H)          -2.685669680000    -6.532602410000     6.614459540000     1.007825032230
      Gh(H)          -4.743884230000    -0.006090060000     2.756159680000     1.007825032230
      Gh(H)          -1.410455400000    -2.247231470000     0.000000000000     1.007825032230
      Gh(C)          -1.437379910000    -5.075048480000     2.940658910000    12.000000000000
      Gh(C)          -2.769007820000    -5.146099160000     5.135228800000    12.000000000000
      Gh(C)          -3.859550360000    -1.777281980000     3.210934110000    12.000000000000
         N            8.716757220000    12.156771140000   -28.969617260000    14.003074004430
         N            6.582134720000    12.298872490000   -25.384829430000    14.003074004430
         H            4.449116870000     8.866109700000   -25.884919470000     1.007825032230
         H            7.109330690000     8.692543040000   -30.278914490000     1.007825032230
         H            9.167545230000    15.219055390000   -26.420614630000     1.007825032230
         H            5.834116410000    12.977913980000   -23.664454950000     1.007825032230
         C            5.861040920000    10.150096970000   -26.605113860000    12.000000000000
         C            7.192668830000    10.079046290000   -28.799683750000    12.000000000000
         C            8.283211360000    13.447863470000   -26.875389060000    12.000000000000

  Charge       = 0
  Multiplicity = 1
  Basis Set: AUG-CC-PVDZ
    Blend: AUG-CC-PVDZ
  Basis Set: (AUG-CC-PVDZ AUX)
    Blend: AUG-CC-PVDZ-JKFIT

    Orbital Energies [Eh]
    ---------------------

    Doubly Occupied:

       1A    -15.637071     2A    -15.551216     3A    -11.300916
       4A    -11.263160     5A    -11.245653     6A     -1.352867
       7A     -1.169098     8A     -1.012098     9A     -0.824390
      10A     -0.803731    11A     -0.760666    12A     -0.610096
      13A     -0.603958    14A     -0.601922    15A     -0.570942
      16A     -0.435483    17A     -0.400464    18A     -0.320685

  @DF-RHF Final Energy:  -224.84369627729481

   => Energetics <=

    Nuclear Repulsion Energy =            164.0866960364401166
    One-Electron Energy =                -628.9319563813648983
    Two-Electron Energy =                 240.0015640676299711
    Total Energy =                       -224.8436962772948107

  Dipole Moment: [D]
     X:    -2.0431      Y:     0.4150      Z:     3.3867     Total:     3.9769

    SAPT Results
  --------------------------------------------------------------------------------------------------------
    Electrostatics                  0.07757263 [mEh]       0.04867756 [kcal/mol]       0.20366691 [kJ/mol]
      Elst10,r                      0.07757263 [mEh]       0.04867756 [kcal/mol]       0.20366691 [kJ/mol]

    Exchange                        0.00000000 [mEh]       0.00000000 [kcal/mol]       0.00000000 [kJ/mol]
      Exch10                        0.00000000 [mEh]       0.00000000 [kcal/mol]       0.00000000 [kJ/mol]
      Exch10(S^2)                   0.00000000 [mEh]       0.00000000 [kcal/mol]       0.00000000 [kJ/mol]

    Induction                      -0.00021779 [mEh]      -0.00013667 [kcal/mol]      -0.00057181 [kJ/mol]
      Ind20,r                      -0.00022063 [mEh]      -0.00013845 [kcal/mol]      -0.00057927 [kJ/mol]
      Exch-Ind20,r                  0.00000000 [mEh]       0.00000000 [kcal/mol]       0.00000000 [kJ/mol]
      delta HF,r (2)                0.00000284 [mEh]       0.00000178 [kcal/mol]       0.00000746 [kJ/mol]

    Dispersion                     -0.00066620 [mEh]      -0.00041804 [kcal/mol]      -0.00174910 [kJ/mol]
      Disp20                       -0.00066620 [mEh]      -0.00041804 [kcal/mol]      -0.00174910 [kJ/mol]
      Exch-Disp20                   0.00000000 [mEh]       0.00000000 [kcal/mol]       0.00000000 [kJ/mol]
      Disp20 (SS)                  -0.00033310 [mEh]      -0.00020902 [kcal/mol]      -0.00087455 [kJ/mol]
      Disp20 (OS)                  -0.00033310 [mEh]      -0.00020902 [kcal/mol]      -0.00087455 [kJ/mol]
      Exch-Disp20 (SS)              0.00000000 [mEh]       0.00000000 [kcal/mol]       0.00000000 [kJ/mol]
      Exch-Disp20 (OS)              0.00000000 [mEh]       0.00000000 [kcal/mol]       0.00000000 [kJ/mol]

  Total HF                          0.07735484 [mEh]       0.04854089 [kcal/mol]       0.20309509 [kJ/mol]
  Total SAPT0                       0.07668864 [mEh]       0.04812285 [kcal/mol]       0.20134600 [kJ/mol]

  Special recipe for scaled SAPT0 (see Manual):
    Electrostatics sSAPT0           0.07757263 [mEh]       0.04867756 [kcal/mol]       0.20366691 [kJ/mol]
    Exchange sSAPT0                 0.00000000 [mEh]       0.00000000 [kcal/mol]       0.00000000 [kJ/mol]
    Induction sSAPT0               -0.00021779 [mEh]      -0.00013667 [kcal/mol]      -0.00057181 [kJ/mol]
    Dispersion sSAPT0              -0.00066620 [mEh]      -0.00041804 [kcal/mol]      -0.00174910 [kJ/mol]
  Total sSAPT0                      0.07668864 [mEh]       0.04812285 [kcal/mol]       0.20134600 [kJ/mol]
  --------------------------------------------------------------------------------------------------------

*** Psi4 exiting successfully. Buy a developer a beer!
