                               Psi4 1.4rc3

  ==> Input File <==

--------------------------------------------------------------------------
# PSI4 file produced by CrystaLattE

# Generated from:               imidazole.xyz
# Psithon input for N-mer:      2mer-0+495
# Number of atoms per monomer:  [9, 9]
# Number of replicas:           2
# COM priority:                 1.719445252865e-05
# Minimum COM separations:      20.502
# Separation priority:          3.010398084272e-05
# Minimum monomer separations:  17.011
# Cutoff priority:              9.364801404838e-07
# Nuclear repulsion energy:     361.6643424932859

memory 7 GB

molecule Dimer_0_495 {
  N           -4.29309621      -3.06837431       5.30516231
  N           -2.15847371      -2.92627296       1.72037448
  H           -0.02545587      -6.35903575       2.22046452
  H           -2.68566968      -6.53260241       6.61445954
  H           -4.74388423      -0.00609006       2.75615968
  H           -1.41045540      -2.24723147       0.00000000
  C           -1.43737991      -5.07504848       2.94065891
  C           -2.76900782      -5.14609916       5.13522880
  C           -3.85955036      -1.77728198       3.21093411
--
  N            0.18908973     -41.70370340      -2.78690955
  N            2.32371223     -41.84580476      -6.37169738
  H            4.45673008     -38.41304196      -5.87160734
  H            1.79651626     -38.23947531      -1.47761232
  H           -0.26169828     -44.76598765      -5.33591219
  H            3.07173054     -42.52484624      -8.09207186
  C            3.04480603     -39.69702923      -5.15141295
  C            1.71317812     -39.62597855      -2.95684306
  C            0.62263559     -42.99479573      -4.88113775
units = au
no_com
no_reorient
}

set {
  e_convergence 10
  d_convergence 10
  scf_type df
  mp2_type df
  cc_type df
  freeze_core true
}

energy('sapt0/aug-cc-pvdz')

--------------------------------------------------------------------------

  //              Dimer HF             //
    Molecular point group: c1
  Charge       = 0
  Multiplicity = 1
  Basis Set: AUG-CC-PVDZ
    Blend: AUG-CC-PVDZ
  Basis Set: (AUG-CC-PVDZ AUX)
    Blend: AUG-CC-PVDZ-JKFIT
  @DF-RHF Final Energy:  -449.68736291492166
    Total Energy =                       -449.6873629149216640
  //            Monomer A HF           //
    Molecular point group: c1
  Multiplicity = 1
  Basis Set: AUG-CC-PVDZ
    Blend: AUG-CC-PVDZ
  Basis Set: (AUG-CC-PVDZ AUX)
    Blend: AUG-CC-PVDZ-JKFIT
  @DF-RHF Final Energy:  -224.84369627729941
    Total Energy =                       -224.8436962772994150
  //            Monomer B HF           //
    Molecular point group: c1

    Geometry (in Bohr), charge = 0, multiplicity = 1:

       Center              X                  Y                   Z               Mass
    ------------   -----------------  -----------------  -----------------  -----------------
      Gh(N)          -4.293096210000    -3.068374310000     5.305162310000    14.003074004430
      Gh(N)          -2.158473710000    -2.926272960000     1.720374480000    14.003074004430
      Gh(H)          -0.025455870000    -6.359035750000     2.220464520000     1.007825032230
      Gh(H)          -2.685669680000    -6.532602410000     6.614459540000     1.007825032230
      Gh(H)          -4.743884230000    -0.006090060000     2.756159680000     1.007825032230
      Gh(H)          -1.410455400000    -2.247231470000     0.000000000000     1.007825032230
      Gh(C)          -1.437379910000    -5.075048480000     2.940658910000    12.000000000000
      Gh(C)          -2.769007820000    -5.146099160000     5.135228800000    12.000000000000
      Gh(C)          -3.859550360000    -1.777281980000     3.210934110000    12.000000000000
         N            0.189089730000   -41.703703400000    -2.786909550000    14.003074004430
         N            2.323712230000   -41.845804760000    -6.371697380000    14.003074004430
         H            4.456730080000   -38.413041960000    -5.871607340000     1.007825032230
         H            1.796516260000   -38.239475310000    -1.477612320000     1.007825032230
         H           -0.261698280000   -44.765987650000    -5.335912190000     1.007825032230
         H            3.071730540000   -42.524846240000    -8.092071860000     1.007825032230
         C            3.044806030000   -39.697029230000    -5.151412950000    12.000000000000
         C            1.713178120000   -39.625978550000    -2.956843060000    12.000000000000
         C            0.622635590000   -42.994795730000    -4.881137750000    12.000000000000

  Charge       = 0
  Multiplicity = 1
  Basis Set: AUG-CC-PVDZ
    Blend: AUG-CC-PVDZ
  Basis Set: (AUG-CC-PVDZ AUX)
    Blend: AUG-CC-PVDZ-JKFIT

    Orbital Energies [Eh]
    ---------------------

    Doubly Occupied:

       1A    -15.637071     2A    -15.551216     3A    -11.300916
       4A    -11.263160     5A    -11.245653     6A     -1.352867
       7A     -1.169098     8A     -1.012098     9A     -0.824390
      10A     -0.803731    11A     -0.760666    12A     -0.610096
      13A     -0.603958    14A     -0.601922    15A     -0.570942
      16A     -0.435483    17A     -0.400464    18A     -0.320685

  @DF-RHF Final Energy:  -224.84369627794794

   => Energetics <=

    Nuclear Repulsion Energy =            164.0866960153085472
    One-Electron Energy =                -628.9319563388155530
    Two-Electron Energy =                 240.0015640455590358
    Total Energy =                       -224.8436962779479416

  Dipole Moment: [D]
     X:     2.0431      Y:    -0.4150      Z:    -3.3867     Total:     3.9769

    SAPT Results
  --------------------------------------------------------------------------------------------------------
    Electrostatics                  0.02966375 [mEh]       0.01861428 [kcal/mol]       0.07788216 [kJ/mol]
      Elst10,r                      0.02966375 [mEh]       0.01861428 [kcal/mol]       0.07788216 [kJ/mol]

    Exchange                        0.00000000 [mEh]       0.00000000 [kcal/mol]       0.00000000 [kJ/mol]
      Exch10                        0.00000000 [mEh]       0.00000000 [kcal/mol]       0.00000000 [kJ/mol]
      Exch10(S^2)                   0.00000000 [mEh]       0.00000000 [kcal/mol]       0.00000000 [kJ/mol]

    Induction                      -0.00002342 [mEh]      -0.00001470 [kcal/mol]      -0.00006149 [kJ/mol]
      Ind20,r                      -0.00003627 [mEh]      -0.00002276 [kcal/mol]      -0.00009523 [kJ/mol]
      Exch-Ind20,r                  0.00000000 [mEh]       0.00000000 [kcal/mol]       0.00000000 [kJ/mol]
      delta HF,r (2)                0.00001285 [mEh]       0.00000806 [kcal/mol]       0.00003374 [kJ/mol]

    Dispersion                     -0.00040853 [mEh]      -0.00025636 [kcal/mol]      -0.00107260 [kJ/mol]
      Disp20                       -0.00040853 [mEh]      -0.00025636 [kcal/mol]      -0.00107260 [kJ/mol]
      Exch-Disp20                   0.00000000 [mEh]       0.00000000 [kcal/mol]       0.00000000 [kJ/mol]
      Disp20 (SS)                  -0.00020427 [mEh]      -0.00012818 [kcal/mol]      -0.00053630 [kJ/mol]
      Disp20 (OS)                  -0.00020427 [mEh]      -0.00012818 [kcal/mol]      -0.00053630 [kJ/mol]
      Exch-Disp20 (SS)              0.00000000 [mEh]       0.00000000 [kcal/mol]       0.00000000 [kJ/mol]
      Exch-Disp20 (OS)              0.00000000 [mEh]       0.00000000 [kcal/mol]       0.00000000 [kJ/mol]

  Total HF                          0.02964033 [mEh]       0.01859959 [kcal/mol]       0.07782066 [kJ/mol]
  Total SAPT0                       0.02923179 [mEh]       0.01834323 [kcal/mol]       0.07674806 [kJ/mol]

  Special recipe for scaled SAPT0 (see Manual):
    Electrostatics sSAPT0           0.02966375 [mEh]       0.01861428 [kcal/mol]       0.07788216 [kJ/mol]
    Exchange sSAPT0                 0.00000000 [mEh]       0.00000000 [kcal/mol]       0.00000000 [kJ/mol]
    Induction sSAPT0               -0.00002342 [mEh]      -0.00001470 [kcal/mol]      -0.00006149 [kJ/mol]
    Dispersion sSAPT0              -0.00040853 [mEh]      -0.00025636 [kcal/mol]      -0.00107260 [kJ/mol]
  Total sSAPT0                      0.02923179 [mEh]       0.01834323 [kcal/mol]       0.07674806 [kJ/mol]
  --------------------------------------------------------------------------------------------------------

*** Psi4 exiting successfully. Buy a developer a beer!
