                               Psi4 1.4rc3

  ==> Input File <==

--------------------------------------------------------------------------
# PSI4 file produced by CrystaLattE

# Generated from:               imidazole.xyz
# Psithon input for N-mer:      2mer-0+206
# Number of atoms per monomer:  [9, 9]
# Number of replicas:           2
# COM priority:                 3.195781020151e-05
# Minimum COM separations:      16.675
# Separation priority:          4.902544544177e-05
# Minimum monomer separations:  14.459
# Cutoff priority:              1.794301407355e-06
# Nuclear repulsion energy:     369.2106775142892

memory 7 GB

molecule Dimer_0_206 {
  N           -4.29309621      -3.06837431       5.30516231
  N           -2.15847371      -2.92627296       1.72037448
  H           -0.02545587      -6.35903575       2.22046452
  H           -2.68566968      -6.53260241       6.61445954
  H           -4.74388423      -0.00609006       2.75615968
  H           -1.41045540      -2.24723147       0.00000000
  C           -1.43737991      -5.07504848       2.94065891
  C           -2.76900782      -5.14609916       5.13522880
  C           -3.85955036      -1.77728198       3.21093411
--
  N          -19.50310124       9.04678142     -18.97105327
  N          -17.36847874       8.90468007     -22.55584110
  H          -15.23546089      12.33744286     -22.05575106
  H          -17.89567471      12.51100952     -17.66175604
  H          -19.95388925       5.98449717     -21.52005591
  H          -16.62046043       8.22563858     -24.27621558
  C          -16.64738494      11.05345559     -21.33555667
  C          -17.97901284      11.12450627     -19.14098678
  C          -19.06955538       7.75568909     -21.06528147
units = au
no_com
no_reorient
}

set {
  e_convergence 10
  d_convergence 10
  scf_type df
  mp2_type df
  cc_type df
  freeze_core true
}

energy('sapt0/aug-cc-pvdz')

--------------------------------------------------------------------------

  //              Dimer HF             //
    Molecular point group: c1
  Charge       = 0
  Multiplicity = 1
  Basis Set: AUG-CC-PVDZ
    Blend: AUG-CC-PVDZ
  Basis Set: (AUG-CC-PVDZ AUX)
    Blend: AUG-CC-PVDZ-JKFIT
  @DF-RHF Final Energy:  -449.68737199257248
    Total Energy =                       -449.6873719925724799
  //            Monomer A HF           //
    Molecular point group: c1
  Multiplicity = 1
  Basis Set: AUG-CC-PVDZ
    Blend: AUG-CC-PVDZ
  Basis Set: (AUG-CC-PVDZ AUX)
    Blend: AUG-CC-PVDZ-JKFIT
  @DF-RHF Final Energy:  -224.84369627876782
    Total Energy =                       -224.8436962787678226
  //            Monomer B HF           //
    Molecular point group: c1

    Geometry (in Bohr), charge = 0, multiplicity = 1:

       Center              X                  Y                   Z               Mass
    ------------   -----------------  -----------------  -----------------  -----------------
      Gh(N)          -4.293096210000    -3.068374310000     5.305162310000    14.003074004430
      Gh(N)          -2.158473710000    -2.926272960000     1.720374480000    14.003074004430
      Gh(H)          -0.025455870000    -6.359035750000     2.220464520000     1.007825032230
      Gh(H)          -2.685669680000    -6.532602410000     6.614459540000     1.007825032230
      Gh(H)          -4.743884230000    -0.006090060000     2.756159680000     1.007825032230
      Gh(H)          -1.410455400000    -2.247231470000     0.000000000000     1.007825032230
      Gh(C)          -1.437379910000    -5.075048480000     2.940658910000    12.000000000000
      Gh(C)          -2.769007820000    -5.146099160000     5.135228800000    12.000000000000
      Gh(C)          -3.859550360000    -1.777281980000     3.210934110000    12.000000000000
         N          -19.503101240000     9.046781420000   -18.971053270000    14.003074004430
         N          -17.368478740000     8.904680070000   -22.555841100000    14.003074004430
         H          -15.235460890000    12.337442860000   -22.055751060000     1.007825032230
         H          -17.895674710000    12.511009520000   -17.661756040000     1.007825032230
         H          -19.953889250000     5.984497170000   -21.520055910000     1.007825032230
         H          -16.620460430000     8.225638580000   -24.276215580000     1.007825032230
         C          -16.647384940000    11.053455590000   -21.335556670000    12.000000000000
         C          -17.979012840000    11.124506270000   -19.140986780000    12.000000000000
         C          -19.069555380000     7.755689090000   -21.065281470000    12.000000000000

  Charge       = 0
  Multiplicity = 1
  Basis Set: AUG-CC-PVDZ
    Blend: AUG-CC-PVDZ
  Basis Set: (AUG-CC-PVDZ AUX)
    Blend: AUG-CC-PVDZ-JKFIT

    Orbital Energies [Eh]
    ---------------------

    Doubly Occupied:

       1A    -15.637071     2A    -15.551216     3A    -11.300916
       4A    -11.263160     5A    -11.245653     6A     -1.352867
       7A     -1.169098     8A     -1.012098     9A     -0.824390
      10A     -0.803731    11A     -0.760666    12A     -0.610096
      13A     -0.603958    14A     -0.601922    15A     -0.570942
      16A     -0.435483    17A     -0.400464    18A     -0.320685

  @DF-RHF Final Energy:  -224.84369627954075

   => Energetics <=

    Nuclear Repulsion Energy =            164.0866960224558397
    One-Electron Energy =                -628.9319563630174343
    Two-Electron Energy =                 240.0015640610208436
    Total Energy =                       -224.8436962795407510

  Dipole Moment: [D]
     X:     2.0431      Y:    -0.4150      Z:    -3.3867     Total:     3.9769

    SAPT Results
  --------------------------------------------------------------------------------------------------------
    Electrostatics                  0.02076770 [mEh]       0.01303193 [kcal/mol]       0.05452558 [kJ/mol]
      Elst10,r                      0.02076770 [mEh]       0.01303193 [kcal/mol]       0.05452558 [kJ/mol]

    Exchange                        0.00000000 [mEh]       0.00000000 [kcal/mol]       0.00000000 [kJ/mol]
      Exch10                        0.00000000 [mEh]       0.00000000 [kcal/mol]       0.00000000 [kJ/mol]
      Exch10(S^2)                   0.00000000 [mEh]       0.00000000 [kcal/mol]       0.00000000 [kJ/mol]

    Induction                      -0.00020196 [mEh]      -0.00012673 [kcal/mol]      -0.00053024 [kJ/mol]
      Ind20,r                      -0.00019869 [mEh]      -0.00012468 [kcal/mol]      -0.00052166 [kJ/mol]
      Exch-Ind20,r                  0.00000000 [mEh]       0.00000000 [kcal/mol]       0.00000000 [kJ/mol]
      delta HF,r (2)               -0.00000327 [mEh]      -0.00000205 [kcal/mol]      -0.00000858 [kJ/mol]

    Dispersion                     -0.00119819 [mEh]      -0.00075188 [kcal/mol]      -0.00314585 [kJ/mol]
      Disp20                       -0.00119819 [mEh]      -0.00075188 [kcal/mol]      -0.00314585 [kJ/mol]
      Exch-Disp20                   0.00000000 [mEh]       0.00000000 [kcal/mol]       0.00000000 [kJ/mol]
      Disp20 (SS)                  -0.00059910 [mEh]      -0.00037594 [kcal/mol]      -0.00157293 [kJ/mol]
      Disp20 (OS)                  -0.00059910 [mEh]      -0.00037594 [kcal/mol]      -0.00157293 [kJ/mol]
      Exch-Disp20 (SS)              0.00000000 [mEh]       0.00000000 [kcal/mol]       0.00000000 [kJ/mol]
      Exch-Disp20 (OS)              0.00000000 [mEh]       0.00000000 [kcal/mol]       0.00000000 [kJ/mol]

  Total HF                          0.02056574 [mEh]       0.01290519 [kcal/mol]       0.05399533 [kJ/mol]
  Total SAPT0                       0.01936754 [mEh]       0.01215332 [kcal/mol]       0.05084948 [kJ/mol]

  Special recipe for scaled SAPT0 (see Manual):
    Electrostatics sSAPT0           0.02076770 [mEh]       0.01303193 [kcal/mol]       0.05452558 [kJ/mol]
    Exchange sSAPT0                 0.00000000 [mEh]       0.00000000 [kcal/mol]       0.00000000 [kJ/mol]
    Induction sSAPT0               -0.00020196 [mEh]      -0.00012673 [kcal/mol]      -0.00053024 [kJ/mol]
    Dispersion sSAPT0              -0.00119819 [mEh]      -0.00075188 [kcal/mol]      -0.00314585 [kJ/mol]
  Total sSAPT0                      0.01936754 [mEh]       0.01215332 [kcal/mol]       0.05084948 [kJ/mol]
  --------------------------------------------------------------------------------------------------------

*** Psi4 exiting successfully. Buy a developer a beer!
