                               Psi4 1.4rc3

  ==> Input File <==

--------------------------------------------------------------------------
# PSI4 file produced by CrystaLattE

# Generated from:               imidazole.xyz
# Psithon input for N-mer:      2mer-0+311
# Number of atoms per monomer:  [9, 9]
# Number of replicas:           2
# COM priority:                 1.362840985878e-05
# Minimum COM separations:      22.154
# Separation priority:          2.408240225978e-05
# Minimum monomer separations:  18.325
# Cutoff priority:              6.954507958635e-07
# Nuclear repulsion energy:     359.2055431739946

memory 7 GB

molecule Dimer_0_311 {
  N           -4.29309621      -3.06837431       5.30516231
  N           -2.15847371      -2.92627296       1.72037448
  H           -0.02545587      -6.35903575       2.22046452
  H           -2.68566968      -6.53260241       6.61445954
  H           -4.74388423      -0.00609006       2.75615968
  H           -1.41045540      -2.24723147       0.00000000
  C           -1.43737991      -5.07504848       2.94065891
  C           -2.76900782      -5.14609916       5.13522880
  C           -3.85955036      -1.77728198       3.21093411
--
  N           28.40894819      22.30686810     -12.78547354
  N           26.27432569      22.44896946      -9.20068571
  H           24.14130784      19.01620666      -9.70077575
  H           26.80152166      18.84264001     -14.09477077
  H           28.85973620      25.36915235     -10.23647090
  H           25.52630738      23.12801094      -7.48031123
  C           25.55323189      20.30019393     -10.42097014
  C           26.88485979      20.22914325     -12.61554003
  C           27.97540233      23.59796043     -10.69124534
units = au
no_com
no_reorient
}

set {
  e_convergence 10
  d_convergence 10
  scf_type df
  mp2_type df
  cc_type df
  freeze_core true
}

energy('sapt0/aug-cc-pvdz')

--------------------------------------------------------------------------

  //              Dimer HF             //
    Molecular point group: c1
  Charge       = 0
  Multiplicity = 1
  Basis Set: AUG-CC-PVDZ
    Blend: AUG-CC-PVDZ
  Basis Set: (AUG-CC-PVDZ AUX)
    Blend: AUG-CC-PVDZ-JKFIT
  @DF-RHF Final Energy:  -449.68738261480587
    Total Energy =                       -449.6873826148058697
  //            Monomer A HF           //
    Molecular point group: c1
  Multiplicity = 1
  Basis Set: AUG-CC-PVDZ
    Blend: AUG-CC-PVDZ
  Basis Set: (AUG-CC-PVDZ AUX)
    Blend: AUG-CC-PVDZ-JKFIT
  @DF-RHF Final Energy:  -224.84369627816011
    Total Energy =                       -224.8436962781601096
  //            Monomer B HF           //
    Molecular point group: c1

    Geometry (in Bohr), charge = 0, multiplicity = 1:

       Center              X                  Y                   Z               Mass
    ------------   -----------------  -----------------  -----------------  -----------------
      Gh(N)          -4.293096210000    -3.068374310000     5.305162310000    14.003074004430
      Gh(N)          -2.158473710000    -2.926272960000     1.720374480000    14.003074004430
      Gh(H)          -0.025455870000    -6.359035750000     2.220464520000     1.007825032230
      Gh(H)          -2.685669680000    -6.532602410000     6.614459540000     1.007825032230
      Gh(H)          -4.743884230000    -0.006090060000     2.756159680000     1.007825032230
      Gh(H)          -1.410455400000    -2.247231470000     0.000000000000     1.007825032230
      Gh(C)          -1.437379910000    -5.075048480000     2.940658910000    12.000000000000
      Gh(C)          -2.769007820000    -5.146099160000     5.135228800000    12.000000000000
      Gh(C)          -3.859550360000    -1.777281980000     3.210934110000    12.000000000000
         N           28.408948190000    22.306868100000   -12.785473540000    14.003074004430
         N           26.274325690000    22.448969460000    -9.200685710000    14.003074004430
         H           24.141307840000    19.016206660000    -9.700775750000     1.007825032230
         H           26.801521660000    18.842640010000   -14.094770770000     1.007825032230
         H           28.859736200000    25.369152350000   -10.236470900000     1.007825032230
         H           25.526307380000    23.128010940000    -7.480311230000     1.007825032230
         C           25.553231890000    20.300193930000   -10.420970140000    12.000000000000
         C           26.884859790000    20.229143250000   -12.615540030000    12.000000000000
         C           27.975402330000    23.597960430000   -10.691245340000    12.000000000000

  Charge       = 0
  Multiplicity = 1
  Basis Set: AUG-CC-PVDZ
    Blend: AUG-CC-PVDZ
  Basis Set: (AUG-CC-PVDZ AUX)
    Blend: AUG-CC-PVDZ-JKFIT

    Orbital Energies [Eh]
    ---------------------

    Doubly Occupied:

       1A    -15.637071     2A    -15.551216     3A    -11.300916
       4A    -11.263160     5A    -11.245653     6A     -1.352867
       7A     -1.169098     8A     -1.012098     9A     -0.824390
      10A     -0.803731    11A     -0.760666    12A     -0.610096
      13A     -0.603958    14A     -0.601922    15A     -0.570942
      16A     -0.435483    17A     -0.400464    18A     -0.320685

  @DF-RHF Final Energy:  -224.84369627783235

   => Energetics <=

    Nuclear Repulsion Energy =            164.0866960067860987
    One-Electron Energy =                -628.9319563219999054
    Two-Electron Energy =                 240.0015640373814563
    Total Energy =                       -224.8436962778323505

  Dipole Moment: [D]
     X:    -2.0431      Y:     0.4150      Z:     3.3867     Total:     3.9769

    SAPT Results
  --------------------------------------------------------------------------------------------------------
    Electrostatics                  0.00999757 [mEh]       0.00627357 [kcal/mol]       0.02624861 [kJ/mol]
      Elst10,r                      0.00999757 [mEh]       0.00627357 [kcal/mol]       0.02624861 [kJ/mol]

    Exchange                        0.00000000 [mEh]       0.00000000 [kcal/mol]       0.00000000 [kJ/mol]
      Exch10                        0.00000000 [mEh]       0.00000000 [kcal/mol]       0.00000000 [kJ/mol]
      Exch10(S^2)                   0.00000000 [mEh]       0.00000000 [kcal/mol]       0.00000000 [kJ/mol]

    Induction                      -0.00005638 [mEh]      -0.00003538 [kcal/mol]      -0.00014802 [kJ/mol]
      Ind20,r                      -0.00005105 [mEh]      -0.00003204 [kcal/mol]      -0.00013404 [kJ/mol]
      Exch-Ind20,r                  0.00000000 [mEh]       0.00000000 [kcal/mol]       0.00000000 [kJ/mol]
      delta HF,r (2)               -0.00000533 [mEh]      -0.00000334 [kcal/mol]      -0.00001399 [kJ/mol]

    Dispersion                     -0.00024575 [mEh]      -0.00015421 [kcal/mol]      -0.00064522 [kJ/mol]
      Disp20                       -0.00024575 [mEh]      -0.00015421 [kcal/mol]      -0.00064522 [kJ/mol]
      Exch-Disp20                   0.00000000 [mEh]       0.00000000 [kcal/mol]       0.00000000 [kJ/mol]
      Disp20 (SS)                  -0.00012288 [mEh]      -0.00007711 [kcal/mol]      -0.00032261 [kJ/mol]
      Disp20 (OS)                  -0.00012288 [mEh]      -0.00007711 [kcal/mol]      -0.00032261 [kJ/mol]
      Exch-Disp20 (SS)              0.00000000 [mEh]       0.00000000 [kcal/mol]       0.00000000 [kJ/mol]
      Exch-Disp20 (OS)              0.00000000 [mEh]       0.00000000 [kcal/mol]       0.00000000 [kJ/mol]

  Total HF                          0.00994119 [mEh]       0.00623819 [kcal/mol]       0.02610058 [kJ/mol]
  Total SAPT0                       0.00969544 [mEh]       0.00608398 [kcal/mol]       0.02545536 [kJ/mol]

  Special recipe for scaled SAPT0 (see Manual):
    Electrostatics sSAPT0           0.00999757 [mEh]       0.00627357 [kcal/mol]       0.02624861 [kJ/mol]
    Exchange sSAPT0                 0.00000000 [mEh]       0.00000000 [kcal/mol]       0.00000000 [kJ/mol]
    Induction sSAPT0               -0.00005638 [mEh]      -0.00003538 [kcal/mol]      -0.00014802 [kJ/mol]
    Dispersion sSAPT0              -0.00024575 [mEh]      -0.00015421 [kcal/mol]      -0.00064522 [kJ/mol]
  Total sSAPT0                      0.00969544 [mEh]       0.00608398 [kcal/mol]       0.02545536 [kJ/mol]
  --------------------------------------------------------------------------------------------------------

*** Psi4 exiting successfully. Buy a developer a beer!
