                               Psi4 1.4rc3

  ==> Input File <==

--------------------------------------------------------------------------
# PSI4 file produced by CrystaLattE

# Generated from:               imidazole.xyz
# Psithon input for N-mer:      2mer-0+231
# Number of atoms per monomer:  [9, 9]
# Number of replicas:           1
# COM priority:                 2.924177129206e-05
# Minimum COM separations:      17.176
# Separation priority:          5.593200634914e-05
# Minimum monomer separations:  13.837
# Cutoff priority:              2.139015168780e-06
# Nuclear repulsion energy:     368.20949565064905

memory 7 GB

molecule Dimer_0_231 {
  N           -4.29309621      -3.06837431       5.30516231
  N           -2.15847371      -2.92627296       1.72037448
  H           -0.02545587      -6.35903575       2.22046452
  H           -2.68566968      -6.53260241       6.61445954
  H           -4.74388423      -0.00609006       2.75615968
  H           -1.41045540      -2.24723147       0.00000000
  C           -1.43737991      -5.07504848       2.94065891
  C           -2.76900782      -5.14609916       5.13522880
  C           -3.85955036      -1.77728198       3.21093411
--
  N            4.23457127     -26.47855795     -20.87754540
  N            2.09994877     -26.62065931     -17.29275757
  H           -0.03306907     -23.18789652     -17.79284761
  H            2.62714474     -23.01432986     -22.18684263
  H            4.68535929     -29.54084221     -18.32854276
  H            1.35193047     -27.29970080     -15.57238309
  C            1.37885497     -24.47188378     -18.51304200
  C            2.71048288     -24.40083310     -20.70761189
  C            3.80102542     -27.76965029     -18.78331720
units = au
no_com
no_reorient
}

set {
  e_convergence 10
  d_convergence 10
  scf_type df
  mp2_type df
  cc_type df
  freeze_core true
}

energy('sapt0/aug-cc-pvdz')

--------------------------------------------------------------------------

  //              Dimer HF             //
    Molecular point group: c1
  Charge       = 0
  Multiplicity = 1
  Basis Set: AUG-CC-PVDZ
    Blend: AUG-CC-PVDZ
  Basis Set: (AUG-CC-PVDZ AUX)
    Blend: AUG-CC-PVDZ-JKFIT
  @DF-RHF Final Energy:  -449.68740020051081
    Total Energy =                       -449.6874002005107513
  //            Monomer A HF           //
    Molecular point group: c1
  Multiplicity = 1
  Basis Set: AUG-CC-PVDZ
    Blend: AUG-CC-PVDZ
  Basis Set: (AUG-CC-PVDZ AUX)
    Blend: AUG-CC-PVDZ-JKFIT
  @DF-RHF Final Energy:  -224.84369627900074
    Total Energy =                       -224.8436962790007385
  //            Monomer B HF           //
    Molecular point group: c1

    Geometry (in Bohr), charge = 0, multiplicity = 1:

       Center              X                  Y                   Z               Mass
    ------------   -----------------  -----------------  -----------------  -----------------
      Gh(N)          -4.293096210000    -3.068374310000     5.305162310000    14.003074004430
      Gh(N)          -2.158473710000    -2.926272960000     1.720374480000    14.003074004430
      Gh(H)          -0.025455870000    -6.359035750000     2.220464520000     1.007825032230
      Gh(H)          -2.685669680000    -6.532602410000     6.614459540000     1.007825032230
      Gh(H)          -4.743884230000    -0.006090060000     2.756159680000     1.007825032230
      Gh(H)          -1.410455400000    -2.247231470000     0.000000000000     1.007825032230
      Gh(C)          -1.437379910000    -5.075048480000     2.940658910000    12.000000000000
      Gh(C)          -2.769007820000    -5.146099160000     5.135228800000    12.000000000000
      Gh(C)          -3.859550360000    -1.777281980000     3.210934110000    12.000000000000
         N            4.234571270000   -26.478557950000   -20.877545400000    14.003074004430
         N            2.099948770000   -26.620659310000   -17.292757570000    14.003074004430
         H           -0.033069070000   -23.187896520000   -17.792847610000     1.007825032230
         H            2.627144740000   -23.014329860000   -22.186842630000     1.007825032230
         H            4.685359290000   -29.540842210000   -18.328542760000     1.007825032230
         H            1.351930470000   -27.299700800000   -15.572383090000     1.007825032230
         C            1.378854970000   -24.471883780000   -18.513042000000    12.000000000000
         C            2.710482880000   -24.400833100000   -20.707611890000    12.000000000000
         C            3.801025420000   -27.769650290000   -18.783317200000    12.000000000000

  Charge       = 0
  Multiplicity = 1
  Basis Set: AUG-CC-PVDZ
    Blend: AUG-CC-PVDZ
  Basis Set: (AUG-CC-PVDZ AUX)
    Blend: AUG-CC-PVDZ-JKFIT

    Orbital Energies [Eh]
    ---------------------

    Doubly Occupied:

       1A    -15.637071     2A    -15.551216     3A    -11.300916
       4A    -11.263160     5A    -11.245653     6A     -1.352867
       7A     -1.169098     8A     -1.012098     9A     -0.824390
      10A     -0.803731    11A     -0.760666    12A     -0.610096
      13A     -0.603958    14A     -0.601922    15A     -0.570942
      16A     -0.435483    17A     -0.400464    18A     -0.320685

  @DF-RHF Final Energy:  -224.84369627870009

   => Energetics <=

    Nuclear Repulsion Energy =            164.0866958774808779
    One-Electron Energy =                -628.9319560762305628
    Two-Electron Energy =                 240.0015639200495627
    Total Energy =                       -224.8436962787000937

  Dipole Moment: [D]
     X:    -2.0431      Y:    -0.4150      Z:     3.3867     Total:     3.9769

    SAPT Results
  --------------------------------------------------------------------------------------------------------
    Electrostatics                 -0.00746123 [mEh]      -0.00468199 [kcal/mol]      -0.01958945 [kJ/mol]
      Elst10,r                     -0.00746123 [mEh]      -0.00468199 [kcal/mol]      -0.01958945 [kJ/mol]

    Exchange                        0.00000000 [mEh]       0.00000000 [kcal/mol]       0.00000000 [kJ/mol]
      Exch10                        0.00000000 [mEh]       0.00000000 [kcal/mol]       0.00000000 [kJ/mol]
      Exch10(S^2)                   0.00000000 [mEh]       0.00000000 [kcal/mol]       0.00000000 [kJ/mol]

    Induction                      -0.00018158 [mEh]      -0.00011395 [kcal/mol]      -0.00047675 [kJ/mol]
      Ind20,r                      -0.00017221 [mEh]      -0.00010807 [kcal/mol]      -0.00045215 [kJ/mol]
      Exch-Ind20,r                  0.00000000 [mEh]       0.00000000 [kcal/mol]       0.00000000 [kJ/mol]
      delta HF,r (2)               -0.00000937 [mEh]      -0.00000588 [kcal/mol]      -0.00002460 [kJ/mol]

    Dispersion                     -0.00115228 [mEh]      -0.00072307 [kcal/mol]      -0.00302531 [kJ/mol]
      Disp20                       -0.00115228 [mEh]      -0.00072307 [kcal/mol]      -0.00302531 [kJ/mol]
      Exch-Disp20                   0.00000000 [mEh]       0.00000000 [kcal/mol]       0.00000000 [kJ/mol]
      Disp20 (SS)                  -0.00057614 [mEh]      -0.00036153 [kcal/mol]      -0.00151265 [kJ/mol]
      Disp20 (OS)                  -0.00057614 [mEh]      -0.00036153 [kcal/mol]      -0.00151265 [kJ/mol]
      Exch-Disp20 (SS)              0.00000000 [mEh]       0.00000000 [kcal/mol]       0.00000000 [kJ/mol]
      Exch-Disp20 (OS)              0.00000000 [mEh]       0.00000000 [kcal/mol]       0.00000000 [kJ/mol]

  Total HF                         -0.00764281 [mEh]      -0.00479594 [kcal/mol]      -0.02006619 [kJ/mol]
  Total SAPT0                      -0.00879509 [mEh]      -0.00551900 [kcal/mol]      -0.02309150 [kJ/mol]

  Special recipe for scaled SAPT0 (see Manual):
    Electrostatics sSAPT0          -0.00746123 [mEh]      -0.00468199 [kcal/mol]      -0.01958945 [kJ/mol]
    Exchange sSAPT0                 0.00000000 [mEh]       0.00000000 [kcal/mol]       0.00000000 [kJ/mol]
    Induction sSAPT0               -0.00018158 [mEh]      -0.00011395 [kcal/mol]      -0.00047675 [kJ/mol]
    Dispersion sSAPT0              -0.00115228 [mEh]      -0.00072307 [kcal/mol]      -0.00302531 [kJ/mol]
  Total sSAPT0                     -0.00879509 [mEh]      -0.00551900 [kcal/mol]      -0.02309150 [kJ/mol]
  --------------------------------------------------------------------------------------------------------

*** Psi4 exiting successfully. Buy a developer a beer!
