                               Psi4 1.4rc3

  ==> Input File <==

--------------------------------------------------------------------------
# PSI4 file produced by CrystaLattE

# Generated from:               imidazole.xyz
# Psithon input for N-mer:      2mer-0+181
# Number of atoms per monomer:  [9, 9]
# Number of replicas:           2
# COM priority:                 5.164305771128e-05
# Minimum COM separations:      14.210
# Separation priority:          9.151412762046e-05
# Minimum monomer separations:  11.743
# Cutoff priority:              4.123989258256e-06
# Nuclear repulsion energy:     376.2676568593731

memory 7 GB

molecule Dimer_0_181 {
  N           -4.29309621      -3.06837431       5.30516231
  N           -2.15847371      -2.92627296       1.72037448
  H           -0.02545587      -6.35903575       2.22046452
  H           -2.68566968      -6.53260241       6.61445954
  H           -4.74388423      -0.00609006       2.75615968
  H           -1.41045540      -2.24723147       0.00000000
  C           -1.43737991      -5.07504848       2.94065891
  C           -2.76900782      -5.14609916       5.13522880
  C           -3.85955036      -1.77728198       3.21093411
--
  N          -23.54026799      12.15677114       3.39867018
  N          -25.67489049      12.29887249       6.98345802
  H          -27.80790833       8.86610970       6.48336797
  H          -25.14769452       8.69254304       2.08937295
  H          -23.08947997      15.21905539       5.94767282
  H          -26.42290879      12.97791398       8.70383249
  C          -26.39598429      10.15009697       5.76317358
  C          -25.06435638      10.07904629       3.56860369
  C          -23.97381384      13.44786347       5.49289838
units = au
no_com
no_reorient
}

set {
  e_convergence 10
  d_convergence 10
  scf_type df
  mp2_type df
  cc_type df
  freeze_core true
}

energy('sapt0/aug-cc-pvdz')

--------------------------------------------------------------------------

  //              Dimer HF             //
    Molecular point group: c1
  Charge       = 0
  Multiplicity = 1
  Basis Set: AUG-CC-PVDZ
    Blend: AUG-CC-PVDZ
  Basis Set: (AUG-CC-PVDZ AUX)
    Blend: AUG-CC-PVDZ-JKFIT
  @DF-RHF Final Energy:  -449.68743730584987
    Total Energy =                       -449.6874373058498122
  //            Monomer A HF           //
    Molecular point group: c1
  Multiplicity = 1
  Basis Set: AUG-CC-PVDZ
    Blend: AUG-CC-PVDZ
  Basis Set: (AUG-CC-PVDZ AUX)
    Blend: AUG-CC-PVDZ-JKFIT
  @DF-RHF Final Energy:  -224.84369628998860
    Total Energy =                       -224.8436962899885998
  //            Monomer B HF           //
    Molecular point group: c1

    Geometry (in Bohr), charge = 0, multiplicity = 1:

       Center              X                  Y                   Z               Mass
    ------------   -----------------  -----------------  -----------------  -----------------
      Gh(N)          -4.293096210000    -3.068374310000     5.305162310000    14.003074004430
      Gh(N)          -2.158473710000    -2.926272960000     1.720374480000    14.003074004430
      Gh(H)          -0.025455870000    -6.359035750000     2.220464520000     1.007825032230
      Gh(H)          -2.685669680000    -6.532602410000     6.614459540000     1.007825032230
      Gh(H)          -4.743884230000    -0.006090060000     2.756159680000     1.007825032230
      Gh(H)          -1.410455400000    -2.247231470000     0.000000000000     1.007825032230
      Gh(C)          -1.437379910000    -5.075048480000     2.940658910000    12.000000000000
      Gh(C)          -2.769007820000    -5.146099160000     5.135228800000    12.000000000000
      Gh(C)          -3.859550360000    -1.777281980000     3.210934110000    12.000000000000
         N          -23.540267990000    12.156771140000     3.398670180000    14.003074004430
         N          -25.674890490000    12.298872490000     6.983458020000    14.003074004430
         H          -27.807908330000     8.866109700000     6.483367970000     1.007825032230
         H          -25.147694520000     8.692543040000     2.089372950000     1.007825032230
         H          -23.089479970000    15.219055390000     5.947672820000     1.007825032230
         H          -26.422908790000    12.977913980000     8.703832490000     1.007825032230
         C          -26.395984290000    10.150096970000     5.763173580000    12.000000000000
         C          -25.064356380000    10.079046290000     3.568603690000    12.000000000000
         C          -23.973813840000    13.447863470000     5.492898380000    12.000000000000

  Charge       = 0
  Multiplicity = 1
  Basis Set: AUG-CC-PVDZ
    Blend: AUG-CC-PVDZ
  Basis Set: (AUG-CC-PVDZ AUX)
    Blend: AUG-CC-PVDZ-JKFIT

    Orbital Energies [Eh]
    ---------------------

    Doubly Occupied:

       1A    -15.637071     2A    -15.551216     3A    -11.300916
       4A    -11.263160     5A    -11.245653     6A     -1.352867
       7A     -1.169098     8A     -1.012098     9A     -0.824390
      10A     -0.803731    11A     -0.760666    12A     -0.610096
      13A     -0.603958    14A     -0.601922    15A     -0.570942
      16A     -0.435483    17A     -0.400464    18A     -0.320685

  @DF-RHF Final Energy:  -224.84369629608872

   => Energetics <=

    Nuclear Repulsion Energy =            164.0866958979480046
    One-Electron Energy =                -628.9319563033501481
    Two-Electron Energy =                 240.0015641093134207
    Total Energy =                       -224.8436962960887229

  Dipole Moment: [D]
     X:    -2.0431      Y:     0.4150      Z:     3.3867     Total:     3.9769

    SAPT Results
  --------------------------------------------------------------------------------------------------------
    Electrostatics                 -0.04412940 [mEh]      -0.02769161 [kcal/mol]      -0.11586172 [kJ/mol]
      Elst10,r                     -0.04412940 [mEh]      -0.02769161 [kcal/mol]      -0.11586172 [kJ/mol]

    Exchange                        0.00000001 [mEh]       0.00000000 [kcal/mol]       0.00000002 [kJ/mol]
      Exch10                        0.00000001 [mEh]       0.00000000 [kcal/mol]       0.00000002 [kJ/mol]
      Exch10(S^2)                   0.00000001 [mEh]       0.00000000 [kcal/mol]       0.00000002 [kJ/mol]

    Induction                      -0.00059038 [mEh]      -0.00037047 [kcal/mol]      -0.00155005 [kJ/mol]
      Ind20,r                      -0.00059985 [mEh]      -0.00037641 [kcal/mol]      -0.00157491 [kJ/mol]
      Exch-Ind20,r                  0.00000002 [mEh]       0.00000001 [kcal/mol]       0.00000005 [kJ/mol]
      delta HF,r (2)                0.00000945 [mEh]       0.00000593 [kcal/mol]       0.00002482 [kJ/mol]

    Dispersion                     -0.00334057 [mEh]      -0.00209624 [kcal/mol]      -0.00877065 [kJ/mol]
      Disp20                       -0.00334057 [mEh]      -0.00209624 [kcal/mol]      -0.00877066 [kJ/mol]
      Exch-Disp20                   0.00000000 [mEh]       0.00000000 [kcal/mol]       0.00000000 [kJ/mol]
      Disp20 (SS)                  -0.00167028 [mEh]      -0.00104812 [kcal/mol]      -0.00438533 [kJ/mol]
      Disp20 (OS)                  -0.00167028 [mEh]      -0.00104812 [kcal/mol]      -0.00438533 [kJ/mol]
      Exch-Disp20 (SS)              0.00000000 [mEh]       0.00000000 [kcal/mol]       0.00000000 [kJ/mol]
      Exch-Disp20 (OS)              0.00000000 [mEh]       0.00000000 [kcal/mol]       0.00000000 [kJ/mol]

  Total HF                         -0.04471977 [mEh]      -0.02806208 [kcal/mol]      -0.11741175 [kJ/mol]
  Total SAPT0                      -0.04806034 [mEh]      -0.03015832 [kcal/mol]      -0.12618240 [kJ/mol]

  Special recipe for scaled SAPT0 (see Manual):
    Electrostatics sSAPT0          -0.04412940 [mEh]      -0.02769161 [kcal/mol]      -0.11586172 [kJ/mol]
    Exchange sSAPT0                 0.00000001 [mEh]       0.00000000 [kcal/mol]       0.00000002 [kJ/mol]
    Induction sSAPT0               -0.00059038 [mEh]      -0.00037047 [kcal/mol]      -0.00155005 [kJ/mol]
    Dispersion sSAPT0              -0.00334057 [mEh]      -0.00209624 [kcal/mol]      -0.00877065 [kJ/mol]
  Total sSAPT0                     -0.04806034 [mEh]      -0.03015832 [kcal/mol]      -0.12618240 [kJ/mol]
  --------------------------------------------------------------------------------------------------------

*** Psi4 exiting successfully. Buy a developer a beer!
