                               Psi4 1.4rc3

  ==> Input File <==

--------------------------------------------------------------------------
# PSI4 file produced by CrystaLattE

# Generated from:               imidazole.xyz
# Psithon input for N-mer:      2mer-0+273
# Number of atoms per monomer:  [9, 9]
# Number of replicas:           2
# COM priority:                 3.415315135288e-05
# Minimum COM separations:      16.310
# Separation priority:          4.892750976726e-05
# Minimum monomer separations:  14.468
# Cutoff priority:              1.789523817962e-06
# Nuclear repulsion energy:     370.14538796351223

memory 7 GB

molecule Dimer_0_273 {
  N           -4.29309621      -3.06837431       5.30516231
  N           -2.15847371      -2.92627296       1.72037448
  H           -0.02545587      -6.35903575       2.22046452
  H           -2.68566968      -6.53260241       6.61445954
  H           -4.74388423      -0.00609006       2.75615968
  H           -1.41045540      -2.24723147       0.00000000
  C           -1.43737991      -5.07504848       2.94065891
  C           -2.76900782      -5.14609916       5.13522880
  C           -3.85955036      -1.77728198       3.21093411
--
  N          -28.46747312     -21.40350947      -2.78690955
  N          -26.33285062     -21.54561083      -6.37169738
  H          -24.19983278     -18.11284803      -5.87160734
  H          -26.86004659     -17.93928138      -1.47761232
  H          -28.91826114     -24.46579372      -5.33591219
  H          -25.58483232     -22.22465231      -8.09207186
  C          -25.61175683     -19.39683530      -5.15141295
  C          -26.94338473     -19.32578462      -2.95684306
  C          -28.03392727     -22.69460180      -4.88113775
units = au
no_com
no_reorient
}

set {
  e_convergence 10
  d_convergence 10
  scf_type df
  mp2_type df
  cc_type df
  freeze_core true
}

energy('sapt0/aug-cc-pvdz')

--------------------------------------------------------------------------

  //              Dimer HF             //
    Molecular point group: c1
  Charge       = 0
  Multiplicity = 1
  Basis Set: AUG-CC-PVDZ
    Blend: AUG-CC-PVDZ
  Basis Set: (AUG-CC-PVDZ AUX)
    Blend: AUG-CC-PVDZ-JKFIT
  @DF-RHF Final Energy:  -449.68733955839781
    Total Energy =                       -449.6873395583978663
  //            Monomer A HF           //
    Molecular point group: c1
  Multiplicity = 1
  Basis Set: AUG-CC-PVDZ
    Blend: AUG-CC-PVDZ
  Basis Set: (AUG-CC-PVDZ AUX)
    Blend: AUG-CC-PVDZ-JKFIT
  @DF-RHF Final Energy:  -224.84369628116542
    Total Energy =                       -224.8436962811654212
  //            Monomer B HF           //
    Molecular point group: c1

    Geometry (in Bohr), charge = 0, multiplicity = 1:

       Center              X                  Y                   Z               Mass
    ------------   -----------------  -----------------  -----------------  -----------------
      Gh(N)          -4.293096210000    -3.068374310000     5.305162310000    14.003074004430
      Gh(N)          -2.158473710000    -2.926272960000     1.720374480000    14.003074004430
      Gh(H)          -0.025455870000    -6.359035750000     2.220464520000     1.007825032230
      Gh(H)          -2.685669680000    -6.532602410000     6.614459540000     1.007825032230
      Gh(H)          -4.743884230000    -0.006090060000     2.756159680000     1.007825032230
      Gh(H)          -1.410455400000    -2.247231470000     0.000000000000     1.007825032230
      Gh(C)          -1.437379910000    -5.075048480000     2.940658910000    12.000000000000
      Gh(C)          -2.769007820000    -5.146099160000     5.135228800000    12.000000000000
      Gh(C)          -3.859550360000    -1.777281980000     3.210934110000    12.000000000000
         N          -28.467473120000   -21.403509470000    -2.786909550000    14.003074004430
         N          -26.332850620000   -21.545610830000    -6.371697380000    14.003074004430
         H          -24.199832780000   -18.112848030000    -5.871607340000     1.007825032230
         H          -26.860046590000   -17.939281380000    -1.477612320000     1.007825032230
         H          -28.918261140000   -24.465793720000    -5.335912190000     1.007825032230
         H          -25.584832320000   -22.224652310000    -8.092071860000     1.007825032230
         C          -25.611756830000   -19.396835300000    -5.151412950000    12.000000000000
         C          -26.943384730000   -19.325784620000    -2.956843060000    12.000000000000
         C          -28.033927270000   -22.694601800000    -4.881137750000    12.000000000000

  Charge       = 0
  Multiplicity = 1
  Basis Set: AUG-CC-PVDZ
    Blend: AUG-CC-PVDZ
  Basis Set: (AUG-CC-PVDZ AUX)
    Blend: AUG-CC-PVDZ-JKFIT

    Orbital Energies [Eh]
    ---------------------

    Doubly Occupied:

       1A    -15.637071     2A    -15.551216     3A    -11.300916
       4A    -11.263160     5A    -11.245653     6A     -1.352867
       7A     -1.169098     8A     -1.012098     9A     -0.824390
      10A     -0.803731    11A     -0.760666    12A     -0.610096
      13A     -0.603958    14A     -0.601922    15A     -0.570942
      16A     -0.435483    17A     -0.400464    18A     -0.320685

  @DF-RHF Final Energy:  -224.84369627832405

   => Energetics <=

    Nuclear Repulsion Energy =            164.0866960499691061
    One-Electron Energy =                -628.9319564160667824
    Two-Electron Energy =                 240.0015640877736587
    Total Energy =                       -224.8436962783240460

  Dipole Moment: [D]
     X:     2.0431      Y:    -0.4150      Z:    -3.3867     Total:     3.9769

    SAPT Results
  --------------------------------------------------------------------------------------------------------
    Electrostatics                  0.05314056 [mEh]       0.03334621 [kcal/mol]       0.13952053 [kJ/mol]
      Elst10,r                      0.05314056 [mEh]       0.03334621 [kcal/mol]       0.13952053 [kJ/mol]

    Exchange                        0.00000000 [mEh]       0.00000000 [kcal/mol]       0.00000000 [kJ/mol]
      Exch10                        0.00000000 [mEh]       0.00000000 [kcal/mol]       0.00000000 [kJ/mol]
      Exch10(S^2)                   0.00000000 [mEh]       0.00000000 [kcal/mol]       0.00000000 [kJ/mol]

    Induction                      -0.00013947 [mEh]      -0.00008752 [kcal/mol]      -0.00036618 [kJ/mol]
      Ind20,r                      -0.00015937 [mEh]      -0.00010000 [kcal/mol]      -0.00041842 [kJ/mol]
      Exch-Ind20,r                  0.00000000 [mEh]       0.00000000 [kcal/mol]       0.00000000 [kJ/mol]
      delta HF,r (2)                0.00001990 [mEh]       0.00001249 [kcal/mol]       0.00005224 [kJ/mol]

    Dispersion                     -0.00139559 [mEh]      -0.00087575 [kcal/mol]      -0.00366412 [kJ/mol]
      Disp20                       -0.00139559 [mEh]      -0.00087575 [kcal/mol]      -0.00366412 [kJ/mol]
      Exch-Disp20                   0.00000000 [mEh]       0.00000000 [kcal/mol]       0.00000000 [kJ/mol]
      Disp20 (SS)                  -0.00069780 [mEh]      -0.00043787 [kcal/mol]      -0.00183206 [kJ/mol]
      Disp20 (OS)                  -0.00069780 [mEh]      -0.00043787 [kcal/mol]      -0.00183206 [kJ/mol]
      Exch-Disp20 (SS)              0.00000000 [mEh]       0.00000000 [kcal/mol]       0.00000000 [kJ/mol]
      Exch-Disp20 (OS)              0.00000000 [mEh]       0.00000000 [kcal/mol]       0.00000000 [kJ/mol]

  Total HF                          0.05300109 [mEh]       0.03325869 [kcal/mol]       0.13915435 [kJ/mol]
  Total SAPT0                       0.05160550 [mEh]       0.03238294 [kcal/mol]       0.13549022 [kJ/mol]

  Special recipe for scaled SAPT0 (see Manual):
    Electrostatics sSAPT0           0.05314056 [mEh]       0.03334621 [kcal/mol]       0.13952053 [kJ/mol]
    Exchange sSAPT0                 0.00000000 [mEh]       0.00000000 [kcal/mol]       0.00000000 [kJ/mol]
    Induction sSAPT0               -0.00013947 [mEh]      -0.00008752 [kcal/mol]      -0.00036618 [kJ/mol]
    Dispersion sSAPT0              -0.00139559 [mEh]      -0.00087575 [kcal/mol]      -0.00366412 [kJ/mol]
  Total sSAPT0                      0.05160550 [mEh]       0.03238294 [kcal/mol]       0.13549022 [kJ/mol]
  --------------------------------------------------------------------------------------------------------

*** Psi4 exiting successfully. Buy a developer a beer!
