                               Psi4 1.4rc3

  ==> Input File <==

--------------------------------------------------------------------------
# PSI4 file produced by CrystaLattE

# Generated from:               imidazole.xyz
# Psithon input for N-mer:      2mer-0+7
# Number of atoms per monomer:  [9, 9]
# Number of replicas:           2
# COM priority:                 2.414597696181e-04
# Minimum COM separations:      8.498
# Separation priority:          1.037861340314e-03
# Minimum monomer separations:  5.227
# Cutoff priority:              1.050797699712e-04
# Nuclear repulsion energy:     409.2609569372357

memory 7 GB

molecule Dimer_0_7 {
  N           -4.29309621      -3.06837431       5.30516231
  N           -2.15847371      -2.92627296       1.72037448
  H           -0.02545587      -6.35903575       2.22046452
  H           -2.68566968      -6.53260241       6.61445954
  H           -4.74388423      -0.00609006       2.75615968
  H           -1.41045540      -2.24723147       0.00000000
  C           -1.43737991      -5.07504848       2.94065891
  C           -2.76900782      -5.14609916       5.13522880
  C           -3.85955036      -1.77728198       3.21093411
--
  N            0.18908973       9.04678142      -2.78690955
  N            2.32371223       8.90468007      -6.37169738
  H            4.45673008      12.33744286      -5.87160734
  H            1.79651626      12.51100952      -1.47761232
  H           -0.26169828       5.98449717      -5.33591219
  H            3.07173054       8.22563858      -8.09207186
  C            3.04480603      11.05345559      -5.15141295
  C            1.71317812      11.12450627      -2.95684306
  C            0.62263559       7.75568909      -4.88113775
units = au
no_com
no_reorient
}

set {
  e_convergence 10
  d_convergence 10
  scf_type df
  mp2_type df
  cc_type df
  freeze_core true
}

energy('sapt0/aug-cc-pvdz')

--------------------------------------------------------------------------

  //              Dimer HF             //
    Molecular point group: c1
  Charge       = 0
  Multiplicity = 1
  Basis Set: AUG-CC-PVDZ
    Blend: AUG-CC-PVDZ
  Basis Set: (AUG-CC-PVDZ AUX)
    Blend: AUG-CC-PVDZ-JKFIT
  @DF-RHF Final Energy:  -449.68740272024075
    Total Energy =                       -449.6874027202408115
  //            Monomer A HF           //
    Molecular point group: c1
  Multiplicity = 1
  Basis Set: AUG-CC-PVDZ
    Blend: AUG-CC-PVDZ
  Basis Set: (AUG-CC-PVDZ AUX)
    Blend: AUG-CC-PVDZ-JKFIT
  @DF-RHF Final Energy:  -224.84370759536276
    Total Energy =                       -224.8437075953627584
  //            Monomer B HF           //
    Molecular point group: c1

    Geometry (in Bohr), charge = 0, multiplicity = 1:

       Center              X                  Y                   Z               Mass
    ------------   -----------------  -----------------  -----------------  -----------------
      Gh(N)          -4.293096210000    -3.068374310000     5.305162310000    14.003074004430
      Gh(N)          -2.158473710000    -2.926272960000     1.720374480000    14.003074004430
      Gh(H)          -0.025455870000    -6.359035750000     2.220464520000     1.007825032230
      Gh(H)          -2.685669680000    -6.532602410000     6.614459540000     1.007825032230
      Gh(H)          -4.743884230000    -0.006090060000     2.756159680000     1.007825032230
      Gh(H)          -1.410455400000    -2.247231470000     0.000000000000     1.007825032230
      Gh(C)          -1.437379910000    -5.075048480000     2.940658910000    12.000000000000
      Gh(C)          -2.769007820000    -5.146099160000     5.135228800000    12.000000000000
      Gh(C)          -3.859550360000    -1.777281980000     3.210934110000    12.000000000000
         N            0.189089730000     9.046781420000    -2.786909550000    14.003074004430
         N            2.323712230000     8.904680070000    -6.371697380000    14.003074004430
         H            4.456730080000    12.337442860000    -5.871607340000     1.007825032230
         H            1.796516260000    12.511009520000    -1.477612320000     1.007825032230
         H           -0.261698280000     5.984497170000    -5.335912190000     1.007825032230
         H            3.071730540000     8.225638580000    -8.092071860000     1.007825032230
         C            3.044806030000    11.053455590000    -5.151412950000    12.000000000000
         C            1.713178120000    11.124506270000    -2.956843060000    12.000000000000
         C            0.622635590000     7.755689090000    -4.881137750000    12.000000000000

  Charge       = 0
  Multiplicity = 1
  Basis Set: AUG-CC-PVDZ
    Blend: AUG-CC-PVDZ
  Basis Set: (AUG-CC-PVDZ AUX)
    Blend: AUG-CC-PVDZ-JKFIT

    Orbital Energies [Eh]
    ---------------------

    Doubly Occupied:

       1A    -15.637078     2A    -15.551228     3A    -11.300914
       4A    -11.263162     5A    -11.245653     6A     -1.352868
       7A     -1.169102     8A     -1.012100     9A     -0.824391
      10A     -0.803733    11A     -0.760669    12A     -0.610098
      13A     -0.603957    14A     -0.601925    15A     -0.570945
      16A     -0.435489    17A     -0.400469    18A     -0.320685

  @DF-RHF Final Energy:  -224.84371264241915

   => Energetics <=

    Nuclear Repulsion Energy =            164.0866960309782883
    One-Electron Energy =                -628.9318839803870560
    Two-Electron Energy =                 240.0014753069896472
    Total Energy =                       -224.8437126424191490

  Dipole Moment: [D]
     X:     2.0421      Y:    -0.4154      Z:    -3.3858     Total:     3.9757

    SAPT Results
  --------------------------------------------------------------------------------------------------------
    Electrostatics                  0.04613090 [mEh]       0.02894757 [kcal/mol]       0.12111665 [kJ/mol]
      Elst10,r                      0.04613090 [mEh]       0.02894757 [kcal/mol]       0.12111665 [kJ/mol]

    Exchange                        0.00006562 [mEh]       0.00004117 [kcal/mol]       0.00017228 [kJ/mol]
      Exch10                        0.00006562 [mEh]       0.00004117 [kcal/mol]       0.00017228 [kJ/mol]
      Exch10(S^2)                   0.00006562 [mEh]       0.00004117 [kcal/mol]       0.00017228 [kJ/mol]

    Induction                      -0.02867897 [mEh]      -0.01799633 [kcal/mol]      -0.07529663 [kJ/mol]
      Ind20,r                      -0.02845739 [mEh]      -0.01785728 [kcal/mol]      -0.07471486 [kJ/mol]
      Exch-Ind20,r                  0.00002786 [mEh]       0.00001748 [kcal/mol]       0.00007315 [kJ/mol]
      delta HF,r (2)               -0.00024944 [mEh]      -0.00015653 [kcal/mol]      -0.00065492 [kJ/mol]

    Dispersion                     -0.10311203 [mEh]      -0.06470378 [kcal/mol]      -0.27072060 [kJ/mol]
      Disp20                       -0.10313193 [mEh]      -0.06471627 [kcal/mol]      -0.27077285 [kJ/mol]
      Exch-Disp20                   0.00001990 [mEh]       0.00001249 [kcal/mol]       0.00005225 [kJ/mol]
      Disp20 (SS)                  -0.05156597 [mEh]      -0.03235813 [kcal/mol]      -0.13538643 [kJ/mol]
      Disp20 (OS)                  -0.05156597 [mEh]      -0.03235813 [kcal/mol]      -0.13538643 [kJ/mol]
      Exch-Disp20 (SS)              0.00001490 [mEh]       0.00000935 [kcal/mol]       0.00003912 [kJ/mol]
      Exch-Disp20 (OS)              0.00000500 [mEh]       0.00000314 [kcal/mol]       0.00001313 [kJ/mol]

  Total HF                          0.01751754 [mEh]       0.01099242 [kcal/mol]       0.04599230 [kJ/mol]
  Total SAPT0                      -0.08559449 [mEh]      -0.05371135 [kcal/mol]      -0.22472830 [kJ/mol]

  Special recipe for scaled SAPT0 (see Manual):
    Electrostatics sSAPT0           0.04613090 [mEh]       0.02894757 [kcal/mol]       0.12111665 [kJ/mol]
    Exchange sSAPT0                 0.00006562 [mEh]       0.00004117 [kcal/mol]       0.00017228 [kJ/mol]
    Induction sSAPT0               -0.02867897 [mEh]      -0.01799633 [kcal/mol]      -0.07529663 [kJ/mol]
    Dispersion sSAPT0              -0.10311203 [mEh]      -0.06470378 [kcal/mol]      -0.27072060 [kJ/mol]
  Total sSAPT0                     -0.08559449 [mEh]      -0.05371135 [kcal/mol]      -0.22472830 [kJ/mol]
  --------------------------------------------------------------------------------------------------------

*** Psi4 exiting successfully. Buy a developer a beer!
