                               Psi4 1.4rc3

  ==> Input File <==

--------------------------------------------------------------------------
# PSI4 file produced by CrystaLattE

# Generated from:               imidazole.xyz
# Psithon input for N-mer:      2mer-0+544
# Number of atoms per monomer:  [9, 9]
# Number of replicas:           2
# COM priority:                 1.253262635094e-05
# Minimum COM separations:      22.782
# Separation priority:          2.114115696727e-05
# Minimum monomer separations:  19.138
# Cutoff priority:              5.845724371516e-07
# Nuclear repulsion energy:     358.25794942568155

memory 7 GB

molecule Dimer_0_544 {
  N           -4.29309621      -3.06837431       5.30516231
  N           -2.15847371      -2.92627296       1.72037448
  H           -0.02545587      -6.35903575       2.22046452
  H           -2.68566968      -6.53260241       6.61445954
  H           -4.74388423      -0.00609006       2.75615968
  H           -1.41045540      -2.24723147       0.00000000
  C           -1.43737991      -5.07504848       2.94065891
  C           -2.76900782      -5.14609916       5.13522880
  C           -3.85955036      -1.77728198       3.21093411
--
  N          -18.17635845      32.45696507      19.58281390
  N          -20.31098095      32.59906642      23.16760174
  H          -22.44399879      29.16630363      22.66751170
  H          -19.78378498      28.99273697      18.27351668
  H          -17.72557043      35.51924932      22.13181654
  H          -21.05899925      33.27810791      24.88797622
  C          -21.03207475      30.45029090      21.94731730
  C          -19.70044684      30.37924022      19.75274741
  C          -18.60990430      33.74805740      21.67704210
units = au
no_com
no_reorient
}

set {
  e_convergence 10
  d_convergence 10
  scf_type df
  mp2_type df
  cc_type df
  freeze_core true
}

energy('sapt0/aug-cc-pvdz')

--------------------------------------------------------------------------

  //              Dimer HF             //
    Molecular point group: c1
  Charge       = 0
  Multiplicity = 1
  Basis Set: AUG-CC-PVDZ
    Blend: AUG-CC-PVDZ
  Basis Set: (AUG-CC-PVDZ AUX)
    Blend: AUG-CC-PVDZ-JKFIT
  @DF-RHF Final Energy:  -449.68739862748430
    Total Energy =                       -449.6873986274842991
  //            Monomer A HF           //
    Molecular point group: c1
  Multiplicity = 1
  Basis Set: AUG-CC-PVDZ
    Blend: AUG-CC-PVDZ
  Basis Set: (AUG-CC-PVDZ AUX)
    Blend: AUG-CC-PVDZ-JKFIT
  @DF-RHF Final Energy:  -224.84369627787677
    Total Energy =                       -224.8436962778767736
  //            Monomer B HF           //
    Molecular point group: c1

    Geometry (in Bohr), charge = 0, multiplicity = 1:

       Center              X                  Y                   Z               Mass
    ------------   -----------------  -----------------  -----------------  -----------------
      Gh(N)          -4.293096210000    -3.068374310000     5.305162310000    14.003074004430
      Gh(N)          -2.158473710000    -2.926272960000     1.720374480000    14.003074004430
      Gh(H)          -0.025455870000    -6.359035750000     2.220464520000     1.007825032230
      Gh(H)          -2.685669680000    -6.532602410000     6.614459540000     1.007825032230
      Gh(H)          -4.743884230000    -0.006090060000     2.756159680000     1.007825032230
      Gh(H)          -1.410455400000    -2.247231470000     0.000000000000     1.007825032230
      Gh(C)          -1.437379910000    -5.075048480000     2.940658910000    12.000000000000
      Gh(C)          -2.769007820000    -5.146099160000     5.135228800000    12.000000000000
      Gh(C)          -3.859550360000    -1.777281980000     3.210934110000    12.000000000000
         N          -18.176358450000    32.456965070000    19.582813900000    14.003074004430
         N          -20.310980950000    32.599066420000    23.167601740000    14.003074004430
         H          -22.443998790000    29.166303630000    22.667511700000     1.007825032230
         H          -19.783784980000    28.992736970000    18.273516680000     1.007825032230
         H          -17.725570430000    35.519249320000    22.131816540000     1.007825032230
         H          -21.058999250000    33.278107910000    24.887976220000     1.007825032230
         C          -21.032074750000    30.450290900000    21.947317300000    12.000000000000
         C          -19.700446840000    30.379240220000    19.752747410000    12.000000000000
         C          -18.609904300000    33.748057400000    21.677042100000    12.000000000000

  Charge       = 0
  Multiplicity = 1
  Basis Set: AUG-CC-PVDZ
    Blend: AUG-CC-PVDZ
  Basis Set: (AUG-CC-PVDZ AUX)
    Blend: AUG-CC-PVDZ-JKFIT

    Orbital Energies [Eh]
    ---------------------

    Doubly Occupied:

       1A    -15.637071     2A    -15.551216     3A    -11.300916
       4A    -11.263160     5A    -11.245653     6A     -1.352867
       7A     -1.169098     8A     -1.012098     9A     -0.824390
      10A     -0.803731    11A     -0.760666    12A     -0.610096
      13A     -0.603958    14A     -0.601922    15A     -0.570942
      16A     -0.435483    17A     -0.400464    18A     -0.320685

  @DF-RHF Final Energy:  -224.84369627780572

   => Energetics <=

    Nuclear Repulsion Energy =            164.0866958835653691
    One-Electron Energy =                -628.9319560779277936
    Two-Electron Energy =                 240.0015639165567052
    Total Energy =                       -224.8436962778057193

  Dipole Moment: [D]
     X:    -2.0431      Y:     0.4150      Z:     3.3867     Total:     3.9769

    SAPT Results
  --------------------------------------------------------------------------------------------------------
    Electrostatics                 -0.00604394 [mEh]      -0.00379263 [kcal/mol]      -0.01586836 [kJ/mol]
      Elst10,r                     -0.00604394 [mEh]      -0.00379263 [kcal/mol]      -0.01586836 [kJ/mol]

    Exchange                        0.00000000 [mEh]       0.00000000 [kcal/mol]       0.00000000 [kJ/mol]
      Exch10                        0.00000000 [mEh]       0.00000000 [kcal/mol]       0.00000000 [kJ/mol]
      Exch10(S^2)                   0.00000000 [mEh]       0.00000000 [kcal/mol]       0.00000000 [kJ/mol]

    Induction                      -0.00002786 [mEh]      -0.00001749 [kcal/mol]      -0.00007316 [kJ/mol]
      Ind20,r                      -0.00003443 [mEh]      -0.00002160 [kcal/mol]      -0.00009039 [kJ/mol]
      Exch-Ind20,r                  0.00000000 [mEh]       0.00000000 [kcal/mol]       0.00000000 [kJ/mol]
      delta HF,r (2)                0.00000656 [mEh]       0.00000412 [kcal/mol]       0.00001723 [kJ/mol]

    Dispersion                     -0.00021089 [mEh]      -0.00013233 [kcal/mol]      -0.00055369 [kJ/mol]
      Disp20                       -0.00021089 [mEh]      -0.00013233 [kcal/mol]      -0.00055369 [kJ/mol]
      Exch-Disp20                   0.00000000 [mEh]       0.00000000 [kcal/mol]       0.00000000 [kJ/mol]
      Disp20 (SS)                  -0.00010544 [mEh]      -0.00006617 [kcal/mol]      -0.00027684 [kJ/mol]
      Disp20 (OS)                  -0.00010544 [mEh]      -0.00006617 [kcal/mol]      -0.00027684 [kJ/mol]
      Exch-Disp20 (SS)              0.00000000 [mEh]       0.00000000 [kcal/mol]       0.00000000 [kJ/mol]
      Exch-Disp20 (OS)              0.00000000 [mEh]       0.00000000 [kcal/mol]       0.00000000 [kJ/mol]

  Total HF                         -0.00607180 [mEh]      -0.00381011 [kcal/mol]      -0.01594151 [kJ/mol]
  Total SAPT0                      -0.00628269 [mEh]      -0.00394245 [kcal/mol]      -0.01649520 [kJ/mol]

  Special recipe for scaled SAPT0 (see Manual):
    Electrostatics sSAPT0          -0.00604394 [mEh]      -0.00379263 [kcal/mol]      -0.01586836 [kJ/mol]
    Exchange sSAPT0                 0.00000000 [mEh]       0.00000000 [kcal/mol]       0.00000000 [kJ/mol]
    Induction sSAPT0               -0.00002786 [mEh]      -0.00001749 [kcal/mol]      -0.00007316 [kJ/mol]
    Dispersion sSAPT0              -0.00021089 [mEh]      -0.00013233 [kcal/mol]      -0.00055369 [kJ/mol]
  Total sSAPT0                     -0.00628269 [mEh]      -0.00394245 [kcal/mol]      -0.01649520 [kJ/mol]
  --------------------------------------------------------------------------------------------------------

*** Psi4 exiting successfully. Buy a developer a beer!
