                               Psi4 1.4rc3

  ==> Input File <==

--------------------------------------------------------------------------
# PSI4 file produced by CrystaLattE

# Generated from:               imidazole.xyz
# Psithon input for N-mer:      2mer-0+36
# Number of atoms per monomer:  [9, 9]
# Number of replicas:           2
# COM priority:                 1.195361983225e-04
# Minimum COM separations:      10.742
# Separation priority:          3.313513466887e-04
# Minimum monomer separations:  7.647
# Cutoff priority:              2.292899326152e-05
# Nuclear repulsion energy:     392.12966271846574

memory 7 GB

molecule Dimer_0_36 {
  N           -4.29309621      -3.06837431       5.30516231
  N           -2.15847371      -2.92627296       1.72037448
  H           -0.02545587      -6.35903575       2.22046452
  H           -2.68566968      -6.53260241       6.61445954
  H           -4.74388423      -0.00609006       2.75615968
  H           -1.41045540      -2.24723147       0.00000000
  C           -1.43737991      -5.07504848       2.94065891
  C           -2.76900782      -5.14609916       5.13522880
  C           -3.85955036      -1.77728198       3.21093411
--
  N           -4.29309621      17.23181962       5.30516231
  N           -2.15847371      17.37392098       1.72037448
  H           -0.02545587      13.94115818       2.22046452
  H           -2.68566968      13.76759152       6.61445954
  H           -4.74388423      20.29410387       2.75615968
  H           -1.41045540      18.05296246       0.00000000
  C           -1.43737991      15.22514545       2.94065891
  C           -2.76900782      15.15409477       5.13522880
  C           -3.85955036      18.52291195       3.21093411
units = au
no_com
no_reorient
}

set {
  e_convergence 10
  d_convergence 10
  scf_type df
  mp2_type df
  cc_type df
  freeze_core true
}

energy('sapt0/aug-cc-pvdz')

--------------------------------------------------------------------------

  //              Dimer HF             //
    Molecular point group: c1
  Charge       = 0
  Multiplicity = 1
  Basis Set: AUG-CC-PVDZ
    Blend: AUG-CC-PVDZ
  Basis Set: (AUG-CC-PVDZ AUX)
    Blend: AUG-CC-PVDZ-JKFIT
  @DF-RHF Final Energy:  -449.68718539831349
    Total Energy =                       -449.6871853983135452
  //            Monomer A HF           //
    Molecular point group: c1
  Multiplicity = 1
  Basis Set: AUG-CC-PVDZ
    Blend: AUG-CC-PVDZ
  Basis Set: (AUG-CC-PVDZ AUX)
    Blend: AUG-CC-PVDZ-JKFIT
  @DF-RHF Final Energy:  -224.84369880177837
    Total Energy =                       -224.8436988017783733
  //            Monomer B HF           //
    Molecular point group: c1

    Geometry (in Bohr), charge = 0, multiplicity = 1:

       Center              X                  Y                   Z               Mass
    ------------   -----------------  -----------------  -----------------  -----------------
      Gh(N)          -4.293096210000    -3.068374310000     5.305162310000    14.003074004430
      Gh(N)          -2.158473710000    -2.926272960000     1.720374480000    14.003074004430
      Gh(H)          -0.025455870000    -6.359035750000     2.220464520000     1.007825032230
      Gh(H)          -2.685669680000    -6.532602410000     6.614459540000     1.007825032230
      Gh(H)          -4.743884230000    -0.006090060000     2.756159680000     1.007825032230
      Gh(H)          -1.410455400000    -2.247231470000     0.000000000000     1.007825032230
      Gh(C)          -1.437379910000    -5.075048480000     2.940658910000    12.000000000000
      Gh(C)          -2.769007820000    -5.146099160000     5.135228800000    12.000000000000
      Gh(C)          -3.859550360000    -1.777281980000     3.210934110000    12.000000000000
         N           -4.293096210000    17.231819620000     5.305162310000    14.003074004430
         N           -2.158473710000    17.373920980000     1.720374480000    14.003074004430
         H           -0.025455870000    13.941158180000     2.220464520000     1.007825032230
         H           -2.685669680000    13.767591520000     6.614459540000     1.007825032230
         H           -4.743884230000    20.294103870000     2.756159680000     1.007825032230
         H           -1.410455400000    18.052962460000     0.000000000000     1.007825032230
         C           -1.437379910000    15.225145450000     2.940658910000    12.000000000000
         C           -2.769007820000    15.154094770000     5.135228800000    12.000000000000
         C           -3.859550360000    18.522911950000     3.210934110000    12.000000000000

  Charge       = 0
  Multiplicity = 1
  Basis Set: AUG-CC-PVDZ
    Blend: AUG-CC-PVDZ
  Basis Set: (AUG-CC-PVDZ AUX)
    Blend: AUG-CC-PVDZ-JKFIT

    Orbital Energies [Eh]
    ---------------------

    Doubly Occupied:

       1A    -15.637072     2A    -15.551216     3A    -11.300917
       4A    -11.263161     5A    -11.245653     6A     -1.352868
       7A     -1.169099     8A     -1.012099     9A     -0.824390
      10A     -0.803732    11A     -0.760668    12A     -0.610097
      13A     -0.603958    14A     -0.601924    15A     -0.570943
      16A     -0.435483    17A     -0.400465    18A     -0.320686

  @DF-RHF Final Energy:  -224.84370051201421

   => Energetics <=

    Nuclear Repulsion Energy =            164.0866959609569733
    One-Electron Energy =                -628.9319287653568153
    Two-Electron Energy =                 240.0015322923856615
    Total Energy =                       -224.8437005120142089

  Dipole Moment: [D]
     X:     2.0432      Y:     0.4145      Z:    -3.3867     Total:     3.9769

    SAPT Results
  --------------------------------------------------------------------------------------------------------
    Electrostatics                  0.21626255 [mEh]       0.13570680 [kcal/mol]       0.56779725 [kJ/mol]
      Elst10,r                      0.21626255 [mEh]       0.13570680 [kcal/mol]       0.56779725 [kJ/mol]

    Exchange                        0.00000200 [mEh]       0.00000125 [kcal/mol]       0.00000524 [kJ/mol]
      Exch10                        0.00000200 [mEh]       0.00000125 [kcal/mol]       0.00000524 [kJ/mol]
      Exch10(S^2)                   0.00000200 [mEh]       0.00000125 [kcal/mol]       0.00000524 [kJ/mol]

    Induction                      -0.00234907 [mEh]      -0.00147406 [kcal/mol]      -0.00616747 [kJ/mol]
      Ind20,r                      -0.00237452 [mEh]      -0.00149003 [kcal/mol]      -0.00623429 [kJ/mol]
      Exch-Ind20,r                  0.00000568 [mEh]       0.00000357 [kcal/mol]       0.00001492 [kJ/mol]
      delta HF,r (2)                0.00001977 [mEh]       0.00001241 [kcal/mol]       0.00005190 [kJ/mol]

    Dispersion                     -0.02206307 [mEh]      -0.01384479 [kcal/mol]      -0.05792659 [kJ/mol]
      Disp20                       -0.02206374 [mEh]      -0.01384521 [kcal/mol]      -0.05792835 [kJ/mol]
      Exch-Disp20                   0.00000067 [mEh]       0.00000042 [kcal/mol]       0.00000176 [kJ/mol]
      Disp20 (SS)                  -0.01103187 [mEh]      -0.00692260 [kcal/mol]      -0.02896418 [kJ/mol]
      Disp20 (OS)                  -0.01103187 [mEh]      -0.00692260 [kcal/mol]      -0.02896418 [kJ/mol]
      Exch-Disp20 (SS)              0.00000055 [mEh]       0.00000034 [kcal/mol]       0.00000144 [kJ/mol]
      Exch-Disp20 (OS)              0.00000012 [mEh]       0.00000008 [kcal/mol]       0.00000032 [kJ/mol]

  Total HF                          0.21391548 [mEh]       0.13423399 [kcal/mol]       0.56163501 [kJ/mol]
  Total SAPT0                       0.19185241 [mEh]       0.12038920 [kcal/mol]       0.50370843 [kJ/mol]

  Special recipe for scaled SAPT0 (see Manual):
    Electrostatics sSAPT0           0.21626255 [mEh]       0.13570680 [kcal/mol]       0.56779725 [kJ/mol]
    Exchange sSAPT0                 0.00000200 [mEh]       0.00000125 [kcal/mol]       0.00000524 [kJ/mol]
    Induction sSAPT0               -0.00234907 [mEh]      -0.00147406 [kcal/mol]      -0.00616747 [kJ/mol]
    Dispersion sSAPT0              -0.02206307 [mEh]      -0.01384479 [kcal/mol]      -0.05792659 [kJ/mol]
  Total sSAPT0                      0.19185241 [mEh]       0.12038920 [kcal/mol]       0.50370843 [kJ/mol]
  --------------------------------------------------------------------------------------------------------

*** Psi4 exiting successfully. Buy a developer a beer!
