                               Psi4 1.4rc3

  ==> Input File <==

--------------------------------------------------------------------------
# PSI4 file produced by CrystaLattE

# Generated from:               imidazole.xyz
# Psithon input for N-mer:      2mer-0+329
# Number of atoms per monomer:  [9, 9]
# Number of replicas:           2
# COM priority:                 2.083928834251e-05
# Minimum COM separations:      19.230
# Separation priority:          3.012336980447e-05
# Minimum monomer separations:  17.007
# Cutoff priority:              9.372844339550e-07
# Nuclear repulsion energy:     363.80474499664274

memory 7 GB

molecule Dimer_0_329 {
  N           -4.29309621      -3.06837431       5.30516231
  N           -2.15847371      -2.92627296       1.72037448
  H           -0.02545587      -6.35903575       2.22046452
  H           -2.68566968      -6.53260241       6.61445954
  H           -4.74388423      -0.00609006       2.75615968
  H           -1.41045540      -2.24723147       0.00000000
  C           -1.43737991      -5.07504848       2.94065891
  C           -2.76900782      -5.14609916       5.13522880
  C           -3.85955036      -1.77728198       3.21093411
--
  N          -19.93980564       2.00667417     -28.96961726
  N          -22.07442814       2.14877553     -25.38482943
  H          -24.20744598      -1.28398727     -25.88491947
  H          -21.54723217      -1.45755392     -30.27891449
  H          -19.48901763       5.06895842     -26.42061463
  H          -22.82244645       2.82781701     -23.66445495
  C          -22.79552194      -0.00000000     -26.60511386
  C          -21.46389403      -0.07105068     -28.79968375
  C          -20.37335149       3.29776650     -26.87538906
units = au
no_com
no_reorient
}

set {
  e_convergence 10
  d_convergence 10
  scf_type df
  mp2_type df
  cc_type df
  freeze_core true
}

energy('sapt0/aug-cc-pvdz')

--------------------------------------------------------------------------

  //              Dimer HF             //
    Molecular point group: c1
  Charge       = 0
  Multiplicity = 1
  Basis Set: AUG-CC-PVDZ
    Blend: AUG-CC-PVDZ
  Basis Set: (AUG-CC-PVDZ AUX)
    Blend: AUG-CC-PVDZ-JKFIT
  @DF-RHF Final Energy:  -449.68741495804284
    Total Energy =                       -449.6874149580428366
  //            Monomer A HF           //
    Molecular point group: c1
  Multiplicity = 1
  Basis Set: AUG-CC-PVDZ
    Blend: AUG-CC-PVDZ
  Basis Set: (AUG-CC-PVDZ AUX)
    Blend: AUG-CC-PVDZ-JKFIT
  @DF-RHF Final Energy:  -224.84369627831541
    Total Energy =                       -224.8436962783154058
  //            Monomer B HF           //
    Molecular point group: c1

    Geometry (in Bohr), charge = 0, multiplicity = 1:

       Center              X                  Y                   Z               Mass
    ------------   -----------------  -----------------  -----------------  -----------------
      Gh(N)          -4.293096210000    -3.068374310000     5.305162310000    14.003074004430
      Gh(N)          -2.158473710000    -2.926272960000     1.720374480000    14.003074004430
      Gh(H)          -0.025455870000    -6.359035750000     2.220464520000     1.007825032230
      Gh(H)          -2.685669680000    -6.532602410000     6.614459540000     1.007825032230
      Gh(H)          -4.743884230000    -0.006090060000     2.756159680000     1.007825032230
      Gh(H)          -1.410455400000    -2.247231470000     0.000000000000     1.007825032230
      Gh(C)          -1.437379910000    -5.075048480000     2.940658910000    12.000000000000
      Gh(C)          -2.769007820000    -5.146099160000     5.135228800000    12.000000000000
      Gh(C)          -3.859550360000    -1.777281980000     3.210934110000    12.000000000000
         N          -19.939805640000     2.006674170000   -28.969617260000    14.003074004430
         N          -22.074428140000     2.148775530000   -25.384829430000    14.003074004430
         H          -24.207445980000    -1.283987270000   -25.884919470000     1.007825032230
         H          -21.547232170000    -1.457553920000   -30.278914490000     1.007825032230
         H          -19.489017630000     5.068958420000   -26.420614630000     1.007825032230
         H          -22.822446450000     2.827817010000   -23.664454950000     1.007825032230
         C          -22.795521940000     0.000000000000   -26.605113860000    12.000000000000
         C          -21.463894030000    -0.071050680000   -28.799683750000    12.000000000000
         C          -20.373351490000     3.297766500000   -26.875389060000    12.000000000000

  Charge       = 0
  Multiplicity = 1
  Basis Set: AUG-CC-PVDZ
    Blend: AUG-CC-PVDZ
  Basis Set: (AUG-CC-PVDZ AUX)
    Blend: AUG-CC-PVDZ-JKFIT

    Orbital Energies [Eh]
    ---------------------

    Doubly Occupied:

       1A    -15.637071     2A    -15.551216     3A    -11.300916
       4A    -11.263160     5A    -11.245653     6A     -1.352867
       7A     -1.169098     8A     -1.012098     9A     -0.824390
      10A     -0.803731    11A     -0.760666    12A     -0.610096
      13A     -0.603958    14A     -0.601922    15A     -0.570942
      16A     -0.435483    17A     -0.400464    18A     -0.320685

  @DF-RHF Final Energy:  -224.84369627846425

   => Energetics <=

    Nuclear Repulsion Energy =            164.0866959899573203
    One-Electron Energy =                -628.9319562904263421
    Two-Electron Energy =                 240.0015640220047715
    Total Energy =                       -224.8436962784642503

  Dipole Moment: [D]
     X:    -2.0431      Y:     0.4150      Z:     3.3867     Total:     3.9769

    SAPT Results
  --------------------------------------------------------------------------------------------------------
    Electrostatics                 -0.02231799 [mEh]      -0.01400475 [kcal/mol]      -0.05859588 [kJ/mol]
      Elst10,r                     -0.02231799 [mEh]      -0.01400475 [kcal/mol]      -0.05859588 [kJ/mol]

    Exchange                       -0.00000000 [mEh]      -0.00000000 [kcal/mol]      -0.00000000 [kJ/mol]
      Exch10                       -0.00000000 [mEh]      -0.00000000 [kcal/mol]      -0.00000000 [kJ/mol]
      Exch10(S^2)                  -0.00000000 [mEh]      -0.00000000 [kcal/mol]      -0.00000000 [kJ/mol]

    Induction                      -0.00008327 [mEh]      -0.00005225 [kcal/mol]      -0.00021863 [kJ/mol]
      Ind20,r                      -0.00008141 [mEh]      -0.00005109 [kcal/mol]      -0.00021374 [kJ/mol]
      Exch-Ind20,r                  0.00000000 [mEh]       0.00000000 [kcal/mol]       0.00000000 [kJ/mol]
      delta HF,r (2)               -0.00000186 [mEh]      -0.00000117 [kcal/mol]      -0.00000489 [kJ/mol]

    Dispersion                     -0.00049643 [mEh]      -0.00031152 [kcal/mol]      -0.00130338 [kJ/mol]
      Disp20                       -0.00049643 [mEh]      -0.00031152 [kcal/mol]      -0.00130338 [kJ/mol]
      Exch-Disp20                   0.00000000 [mEh]       0.00000000 [kcal/mol]       0.00000000 [kJ/mol]
      Disp20 (SS)                  -0.00024822 [mEh]      -0.00015576 [kcal/mol]      -0.00065169 [kJ/mol]
      Disp20 (OS)                  -0.00024822 [mEh]      -0.00015576 [kcal/mol]      -0.00065169 [kJ/mol]
      Exch-Disp20 (SS)              0.00000000 [mEh]       0.00000000 [kcal/mol]       0.00000000 [kJ/mol]
      Exch-Disp20 (OS)              0.00000000 [mEh]       0.00000000 [kcal/mol]       0.00000000 [kJ/mol]

  Total HF                         -0.02240126 [mEh]      -0.01405700 [kcal/mol]      -0.05881451 [kJ/mol]
  Total SAPT0                      -0.02289770 [mEh]      -0.01436852 [kcal/mol]      -0.06011789 [kJ/mol]

  Special recipe for scaled SAPT0 (see Manual):
    Electrostatics sSAPT0          -0.02231799 [mEh]      -0.01400475 [kcal/mol]      -0.05859588 [kJ/mol]
    Exchange sSAPT0                -0.00000000 [mEh]      -0.00000000 [kcal/mol]      -0.00000000 [kJ/mol]
    Induction sSAPT0               -0.00008327 [mEh]      -0.00005225 [kcal/mol]      -0.00021863 [kJ/mol]
    Dispersion sSAPT0              -0.00049643 [mEh]      -0.00031152 [kcal/mol]      -0.00130338 [kJ/mol]
  Total sSAPT0                     -0.02289770 [mEh]      -0.01436852 [kcal/mol]      -0.06011789 [kJ/mol]
  --------------------------------------------------------------------------------------------------------

*** Psi4 exiting successfully. Buy a developer a beer!
