                               Psi4 1.4rc3

  ==> Input File <==

--------------------------------------------------------------------------
# PSI4 file produced by CrystaLattE

# Generated from:               imidazole.xyz
# Psithon input for N-mer:      2mer-0+16
# Number of atoms per monomer:  [9, 9]
# Number of replicas:           1
# COM priority:                 9.911808039312e-04
# Minimum COM separations:      5.307
# Separation priority:          6.014627817740e-03
# Minimum monomer separations:  2.910
# Cutoff priority:              1.093817862821e-03
# Nuclear repulsion energy:     457.75065217339227

memory 7 GB

molecule Dimer_0_16 {
  N           -4.29309621      -3.06837431       5.30516231
  N           -2.15847371      -2.92627296       1.72037448
  H           -0.02545587      -6.35903575       2.22046452
  H           -2.68566968      -6.53260241       6.61445954
  H           -4.74388423      -0.00609006       2.75615968
  H           -1.41045540      -2.24723147       0.00000000
  C           -1.43737991      -5.07504848       2.94065891
  C           -2.76900782      -5.14609916       5.13522880
  C           -3.85955036      -1.77728198       3.21093411
--
  N            0.63410893      -6.17836402      11.49074204
  N           -1.50051357      -6.32046538      15.07552988
  H           -3.63353142      -2.88770259      14.57543984
  H           -0.97331761      -2.71413593      10.18144482
  H            1.08489694      -9.24064828      14.03974468
  H           -2.24853188      -6.99950687      16.79590435
  C           -2.22160737      -4.17168985      13.85524544
  C           -0.88997947      -4.10063917      11.66067555
  C            0.20056307      -7.46945636      13.58497024
units = au
no_com
no_reorient
}

set {
  e_convergence 10
  d_convergence 10
  scf_type df
  mp2_type df
  cc_type df
  freeze_core true
}

energy('sapt0/aug-cc-pvdz')

--------------------------------------------------------------------------

  //              Dimer HF             //
    Molecular point group: c1
  Charge       = 0
  Multiplicity = 1
  Basis Set: AUG-CC-PVDZ
    Blend: AUG-CC-PVDZ
  Basis Set: (AUG-CC-PVDZ AUX)
    Blend: AUG-CC-PVDZ-JKFIT
  @DF-RHF Final Energy:  -449.68788436967560
    Total Energy =                       -449.6878843696756576
  //            Monomer A HF           //
    Molecular point group: c1
  Multiplicity = 1
  Basis Set: AUG-CC-PVDZ
    Blend: AUG-CC-PVDZ
  Basis Set: (AUG-CC-PVDZ AUX)
    Blend: AUG-CC-PVDZ-JKFIT
  @DF-RHF Final Energy:  -224.84390131570575
    Total Energy =                       -224.8439013157057502
  //            Monomer B HF           //
    Molecular point group: c1

    Geometry (in Bohr), charge = 0, multiplicity = 1:

       Center              X                  Y                   Z               Mass
    ------------   -----------------  -----------------  -----------------  -----------------
      Gh(N)          -4.293096210000    -3.068374310000     5.305162310000    14.003074004430
      Gh(N)          -2.158473710000    -2.926272960000     1.720374480000    14.003074004430
      Gh(H)          -0.025455870000    -6.359035750000     2.220464520000     1.007825032230
      Gh(H)          -2.685669680000    -6.532602410000     6.614459540000     1.007825032230
      Gh(H)          -4.743884230000    -0.006090060000     2.756159680000     1.007825032230
      Gh(H)          -1.410455400000    -2.247231470000     0.000000000000     1.007825032230
      Gh(C)          -1.437379910000    -5.075048480000     2.940658910000    12.000000000000
      Gh(C)          -2.769007820000    -5.146099160000     5.135228800000    12.000000000000
      Gh(C)          -3.859550360000    -1.777281980000     3.210934110000    12.000000000000
         N            0.634108930000    -6.178364020000    11.490742040000    14.003074004430
         N           -1.500513570000    -6.320465380000    15.075529880000    14.003074004430
         H           -3.633531420000    -2.887702590000    14.575439840000     1.007825032230
         H           -0.973317610000    -2.714135930000    10.181444820000     1.007825032230
         H            1.084896940000    -9.240648280000    14.039744680000     1.007825032230
         H           -2.248531880000    -6.999506870000    16.795904350000     1.007825032230
         C           -2.221607370000    -4.171689850000    13.855245440000    12.000000000000
         C           -0.889979470000    -4.100639170000    11.660675550000    12.000000000000
         C            0.200563070000    -7.469456360000    13.584970240000    12.000000000000

  Charge       = 0
  Multiplicity = 1
  Basis Set: AUG-CC-PVDZ
    Blend: AUG-CC-PVDZ
  Basis Set: (AUG-CC-PVDZ AUX)
    Blend: AUG-CC-PVDZ-JKFIT

    Orbital Energies [Eh]
    ---------------------

    Doubly Occupied:

       1A    -15.637084     2A    -15.551277     3A    -11.300903
       4A    -11.263126     5A    -11.245636     6A     -1.352854
       7A     -1.169086     8A     -1.012086     9A     -0.824375
      10A     -0.803722    11A     -0.760660    12A     -0.610083
      13A     -0.603955    14A     -0.601910    15A     -0.570935
      16A     -0.435482    17A     -0.400461    18A     -0.320687

  @DF-RHF Final Energy:  -224.84390131596834

   => Energetics <=

    Nuclear Repulsion Energy =            164.0866958085161400
    One-Electron Energy =                -628.9325489385638548
    Two-Electron Energy =                 240.0019518140793764
    Total Energy =                       -224.8439013159683384

  Dipole Moment: [D]
     X:    -2.0401      Y:    -0.4162      Z:     3.3838     Total:     3.9731

    SAPT Results
  --------------------------------------------------------------------------------------------------------
    Electrostatics                 -1.75794019 [mEh]      -1.10312412 [kcal/mol]      -4.61547133 [kJ/mol]
      Elst10,r                     -1.75794019 [mEh]      -1.10312412 [kcal/mol]      -4.61547133 [kJ/mol]

    Exchange                        2.24240162 [mEh]       1.40712826 [kcal/mol]       5.88742465 [kJ/mol]
      Exch10                        2.24240162 [mEh]       1.40712826 [kcal/mol]       5.88742465 [kJ/mol]
      Exch10(S^2)                   2.23869849 [mEh]       1.40480451 [kcal/mol]       5.87770207 [kJ/mol]

    Induction                      -0.56619944 [mEh]      -0.35529551 [kcal/mol]      -1.48655642 [kJ/mol]
      Ind20,r                      -0.88471204 [mEh]      -0.55516518 [kcal/mol]      -2.32281113 [kJ/mol]
      Exch-Ind20,r                  0.51383785 [mEh]       0.32243812 [kcal/mol]       1.34908109 [kJ/mol]
      delta HF,r (2)               -0.19532525 [mEh]      -0.12256845 [kcal/mol]      -0.51282638 [kJ/mol]

    Dispersion                     -3.38924529 [mEh]      -2.12678353 [kcal/mol]      -8.89846228 [kJ/mol]
      Disp20                       -3.68648148 [mEh]      -2.31330206 [kcal/mol]      -9.67885581 [kJ/mol]
      Exch-Disp20                   0.29723619 [mEh]       0.18651853 [kcal/mol]       0.78039352 [kJ/mol]
      Disp20 (SS)                  -1.84324074 [mEh]      -1.15665103 [kcal/mol]      -4.83942790 [kJ/mol]
      Disp20 (OS)                  -1.84324074 [mEh]      -1.15665103 [kcal/mol]      -4.83942790 [kJ/mol]
      Exch-Disp20 (SS)              0.18997650 [mEh]       0.11921206 [kcal/mol]       0.49878324 [kJ/mol]
      Exch-Disp20 (OS)              0.10725969 [mEh]       0.06730647 [kcal/mol]       0.28161028 [kJ/mol]

  Total HF                         -0.08173800 [mEh]      -0.05129137 [kcal/mol]      -0.21460309 [kJ/mol]
  Total SAPT0                      -3.47098329 [mEh]      -2.17807490 [kcal/mol]      -9.11306538 [kJ/mol]

  Special recipe for scaled SAPT0 (see Manual):
    Electrostatics sSAPT0          -1.75794019 [mEh]      -1.10312412 [kcal/mol]      -4.61547133 [kJ/mol]
    Exchange sSAPT0                 2.24240162 [mEh]       1.40712826 [kcal/mol]       5.88742465 [kJ/mol]
    Induction sSAPT0               -0.56364533 [mEh]      -0.35369278 [kcal/mol]      -1.47985061 [kJ/mol]
    Dispersion sSAPT0              -3.38776783 [mEh]      -2.12585641 [kcal/mol]      -8.89458322 [kJ/mol]
  Total sSAPT0                     -3.46695173 [mEh]      -2.17554505 [kcal/mol]      -9.10248051 [kJ/mol]
  --------------------------------------------------------------------------------------------------------

*** Psi4 exiting successfully. Buy a developer a beer!
