                               Psi4 1.4rc3

  ==> Input File <==

--------------------------------------------------------------------------
# PSI4 file produced by CrystaLattE

# Generated from:               imidazole.xyz
# Psithon input for N-mer:      2mer-0+280
# Number of atoms per monomer:  [9, 9]
# Number of replicas:           2
# COM priority:                 1.757141938343e-05
# Minimum COM separations:      20.355
# Separation priority:          3.132832918777e-05
# Minimum monomer separations:  16.786
# Cutoff priority:              9.876043134727e-07
# Nuclear repulsion energy:     361.91560423012754

memory 7 GB

molecule Dimer_0_280 {
  N           -4.29309621      -3.06837431       5.30516231
  N           -2.15847371      -2.92627296       1.72037448
  H           -0.02545587      -6.35903575       2.22046452
  H           -2.68566968      -6.53260241       6.61445954
  H           -4.74388423      -0.00609006       2.75615968
  H           -1.41045540      -2.24723147       0.00000000
  C           -1.43737991      -5.07504848       2.94065891
  C           -2.76900782      -5.14609916       5.13522880
  C           -3.85955036      -1.77728198       3.21093411
--
  N           -0.24761467      32.45696507     -12.78547354
  N           -2.38223717      32.59906642      -9.20068571
  H           -4.51525502      29.16630363      -9.70077575
  H           -1.85504120      28.99273697     -14.09477077
  H            0.20317334      35.51924932     -10.23647090
  H           -3.13025548      33.27810791      -7.48031123
  C           -3.10333097      30.45029090     -10.42097014
  C           -1.77170306      30.37924022     -12.61554003
  C           -0.68116052      33.74805740     -10.69124534
units = au
no_com
no_reorient
}

set {
  e_convergence 10
  d_convergence 10
  scf_type df
  mp2_type df
  cc_type df
  freeze_core true
}

energy('sapt0/aug-cc-pvdz')

--------------------------------------------------------------------------

  //              Dimer HF             //
    Molecular point group: c1
  Charge       = 0
  Multiplicity = 1
  Basis Set: AUG-CC-PVDZ
    Blend: AUG-CC-PVDZ
  Basis Set: (AUG-CC-PVDZ AUX)
    Blend: AUG-CC-PVDZ-JKFIT
  @DF-RHF Final Energy:  -449.68741853054922
    Total Energy =                       -449.6874185305491665
  //            Monomer A HF           //
    Molecular point group: c1
  Multiplicity = 1
  Basis Set: AUG-CC-PVDZ
    Blend: AUG-CC-PVDZ
  Basis Set: (AUG-CC-PVDZ AUX)
    Blend: AUG-CC-PVDZ-JKFIT
  @DF-RHF Final Energy:  -224.84369627731192
    Total Energy =                       -224.8436962773119205
  //            Monomer B HF           //
    Molecular point group: c1

    Geometry (in Bohr), charge = 0, multiplicity = 1:

       Center              X                  Y                   Z               Mass
    ------------   -----------------  -----------------  -----------------  -----------------
      Gh(N)          -4.293096210000    -3.068374310000     5.305162310000    14.003074004430
      Gh(N)          -2.158473710000    -2.926272960000     1.720374480000    14.003074004430
      Gh(H)          -0.025455870000    -6.359035750000     2.220464520000     1.007825032230
      Gh(H)          -2.685669680000    -6.532602410000     6.614459540000     1.007825032230
      Gh(H)          -4.743884230000    -0.006090060000     2.756159680000     1.007825032230
      Gh(H)          -1.410455400000    -2.247231470000     0.000000000000     1.007825032230
      Gh(C)          -1.437379910000    -5.075048480000     2.940658910000    12.000000000000
      Gh(C)          -2.769007820000    -5.146099160000     5.135228800000    12.000000000000
      Gh(C)          -3.859550360000    -1.777281980000     3.210934110000    12.000000000000
         N           -0.247614670000    32.456965070000   -12.785473540000    14.003074004430
         N           -2.382237170000    32.599066420000    -9.200685710000    14.003074004430
         H           -4.515255020000    29.166303630000    -9.700775750000     1.007825032230
         H           -1.855041200000    28.992736970000   -14.094770770000     1.007825032230
         H            0.203173340000    35.519249320000   -10.236470900000     1.007825032230
         H           -3.130255480000    33.278107910000    -7.480311230000     1.007825032230
         C           -3.103330970000    30.450290900000   -10.420970140000    12.000000000000
         C           -1.771703060000    30.379240220000   -12.615540030000    12.000000000000
         C           -0.681160520000    33.748057400000   -10.691245340000    12.000000000000

  Charge       = 0
  Multiplicity = 1
  Basis Set: AUG-CC-PVDZ
    Blend: AUG-CC-PVDZ
  Basis Set: (AUG-CC-PVDZ AUX)
    Blend: AUG-CC-PVDZ-JKFIT

    Orbital Energies [Eh]
    ---------------------

    Doubly Occupied:

       1A    -15.637071     2A    -15.551216     3A    -11.300916
       4A    -11.263160     5A    -11.245653     6A     -1.352867
       7A     -1.169098     8A     -1.012098     9A     -0.824390
      10A     -0.803731    11A     -0.760666    12A     -0.610096
      13A     -0.603958    14A     -0.601922    15A     -0.570942
      16A     -0.435483    17A     -0.400464    18A     -0.320685

  @DF-RHF Final Energy:  -224.84369627839217

   => Energetics <=

    Nuclear Repulsion Energy =            164.0866959830293581
    One-Electron Energy =                -628.9319562785975677
    Two-Electron Energy =                 240.0015640171760367
    Total Energy =                       -224.8436962783921729

  Dipole Moment: [D]
     X:    -2.0431      Y:     0.4150      Z:     3.3867     Total:     3.9769

    SAPT Results
  --------------------------------------------------------------------------------------------------------
    Electrostatics                 -0.02590412 [mEh]      -0.01625508 [kcal/mol]      -0.06801126 [kJ/mol]
      Elst10,r                     -0.02590412 [mEh]      -0.01625508 [kcal/mol]      -0.06801126 [kJ/mol]

    Exchange                        0.00000000 [mEh]       0.00000000 [kcal/mol]       0.00000000 [kJ/mol]
      Exch10                        0.00000000 [mEh]       0.00000000 [kcal/mol]       0.00000000 [kJ/mol]
      Exch10(S^2)                   0.00000000 [mEh]       0.00000000 [kcal/mol]       0.00000000 [kJ/mol]

    Induction                      -0.00007073 [mEh]      -0.00004438 [kcal/mol]      -0.00018569 [kJ/mol]
      Ind20,r                      -0.00006104 [mEh]      -0.00003830 [kcal/mol]      -0.00016025 [kJ/mol]
      Exch-Ind20,r                  0.00000000 [mEh]       0.00000000 [kcal/mol]       0.00000000 [kJ/mol]
      delta HF,r (2)               -0.00000969 [mEh]      -0.00000608 [kcal/mol]      -0.00002544 [kJ/mol]

    Dispersion                     -0.00041477 [mEh]      -0.00026027 [kcal/mol]      -0.00108898 [kJ/mol]
      Disp20                       -0.00041477 [mEh]      -0.00026027 [kcal/mol]      -0.00108898 [kJ/mol]
      Exch-Disp20                   0.00000000 [mEh]       0.00000000 [kcal/mol]       0.00000000 [kJ/mol]
      Disp20 (SS)                  -0.00020739 [mEh]      -0.00013014 [kcal/mol]      -0.00054449 [kJ/mol]
      Disp20 (OS)                  -0.00020739 [mEh]      -0.00013014 [kcal/mol]      -0.00054449 [kJ/mol]
      Exch-Disp20 (SS)              0.00000000 [mEh]       0.00000000 [kcal/mol]       0.00000000 [kJ/mol]
      Exch-Disp20 (OS)              0.00000000 [mEh]       0.00000000 [kcal/mol]       0.00000000 [kJ/mol]

  Total HF                         -0.02597485 [mEh]      -0.01629946 [kcal/mol]      -0.06819695 [kJ/mol]
  Total SAPT0                      -0.02638962 [mEh]      -0.01655973 [kcal/mol]      -0.06928593 [kJ/mol]

  Special recipe for scaled SAPT0 (see Manual):
    Electrostatics sSAPT0          -0.02590412 [mEh]      -0.01625508 [kcal/mol]      -0.06801126 [kJ/mol]
    Exchange sSAPT0                 0.00000000 [mEh]       0.00000000 [kcal/mol]       0.00000000 [kJ/mol]
    Induction sSAPT0               -0.00007073 [mEh]      -0.00004438 [kcal/mol]      -0.00018569 [kJ/mol]
    Dispersion sSAPT0              -0.00041477 [mEh]      -0.00026027 [kcal/mol]      -0.00108898 [kJ/mol]
  Total sSAPT0                     -0.02638962 [mEh]      -0.01655973 [kcal/mol]      -0.06928593 [kJ/mol]
  --------------------------------------------------------------------------------------------------------

*** Psi4 exiting successfully. Buy a developer a beer!
