                               Psi4 1.4rc3

  ==> Input File <==

--------------------------------------------------------------------------
# PSI4 file produced by CrystaLattE

# Generated from:               imidazole.xyz
# Psithon input for N-mer:      2mer-0+377
# Number of atoms per monomer:  [9, 9]
# Number of replicas:           1
# COM priority:                 1.922239373925e-05
# Minimum COM separations:      19.754
# Separation priority:          3.463002002983e-05
# Minimum monomer separations:  16.235
# Cutoff priority:              1.128765318004e-06
# Nuclear repulsion energy:     362.86036864636833

memory 7 GB

molecule Dimer_0_377 {
  N           -4.29309621      -3.06837431       5.30516231
  N           -2.15847371      -2.92627296       1.72037448
  H           -0.02545587      -6.35903575       2.22046452
  H           -2.68566968      -6.53260241       6.61445954
  H           -4.74388423      -0.00609006       2.75615968
  H           -1.41045540      -2.24723147       0.00000000
  C           -1.43737991      -5.07504848       2.94065891
  C           -2.76900782      -5.14609916       5.13522880
  C           -3.85955036      -1.77728198       3.21093411
--
  N          -33.38636347      14.12182991      -4.69340168
  N          -35.52098597      13.97972855      -1.10861384
  H          -37.65400382      17.41249134      -1.60870389
  H          -34.99379000      17.58605800      -6.00269891
  H          -32.93557546      11.05954565      -2.14439904
  H          -36.26900428      13.30068706       0.61176063
  C          -36.24207977      16.12850408      -2.32889828
  C          -34.91045186      16.19955476      -4.52346817
  C          -33.81990933      12.83073757      -2.59917348
units = au
no_com
no_reorient
}

set {
  e_convergence 10
  d_convergence 10
  scf_type df
  mp2_type df
  cc_type df
  freeze_core true
}

energy('sapt0/aug-cc-pvdz')

--------------------------------------------------------------------------

  //              Dimer HF             //
    Molecular point group: c1
  Charge       = 0
  Multiplicity = 1
  Basis Set: AUG-CC-PVDZ
    Blend: AUG-CC-PVDZ
  Basis Set: (AUG-CC-PVDZ AUX)
    Blend: AUG-CC-PVDZ-JKFIT
  @DF-RHF Final Energy:  -449.68744383485813
    Total Energy =                       -449.6874438348580725
  //            Monomer A HF           //
    Molecular point group: c1
  Multiplicity = 1
  Basis Set: AUG-CC-PVDZ
    Blend: AUG-CC-PVDZ
  Basis Set: (AUG-CC-PVDZ AUX)
    Blend: AUG-CC-PVDZ-JKFIT
  @DF-RHF Final Energy:  -224.84369627788175
    Total Energy =                       -224.8436962778817474
  //            Monomer B HF           //
    Molecular point group: c1

    Geometry (in Bohr), charge = 0, multiplicity = 1:

       Center              X                  Y                   Z               Mass
    ------------   -----------------  -----------------  -----------------  -----------------
      Gh(N)          -4.293096210000    -3.068374310000     5.305162310000    14.003074004430
      Gh(N)          -2.158473710000    -2.926272960000     1.720374480000    14.003074004430
      Gh(H)          -0.025455870000    -6.359035750000     2.220464520000     1.007825032230
      Gh(H)          -2.685669680000    -6.532602410000     6.614459540000     1.007825032230
      Gh(H)          -4.743884230000    -0.006090060000     2.756159680000     1.007825032230
      Gh(H)          -1.410455400000    -2.247231470000     0.000000000000     1.007825032230
      Gh(C)          -1.437379910000    -5.075048480000     2.940658910000    12.000000000000
      Gh(C)          -2.769007820000    -5.146099160000     5.135228800000    12.000000000000
      Gh(C)          -3.859550360000    -1.777281980000     3.210934110000    12.000000000000
         N          -33.386363470000    14.121829910000    -4.693401680000    14.003074004430
         N          -35.520985970000    13.979728550000    -1.108613840000    14.003074004430
         H          -37.654003820000    17.412491340000    -1.608703890000     1.007825032230
         H          -34.993790000000    17.586058000000    -6.002698910000     1.007825032230
         H          -32.935575460000    11.059545650000    -2.144399040000     1.007825032230
         H          -36.269004280000    13.300687060000     0.611760630000     1.007825032230
         C          -36.242079770000    16.128504080000    -2.328898280000    12.000000000000
         C          -34.910451860000    16.199554760000    -4.523468170000    12.000000000000
         C          -33.819909330000    12.830737570000    -2.599173480000    12.000000000000

  Charge       = 0
  Multiplicity = 1
  Basis Set: AUG-CC-PVDZ
    Blend: AUG-CC-PVDZ
  Basis Set: (AUG-CC-PVDZ AUX)
    Blend: AUG-CC-PVDZ-JKFIT

    Orbital Energies [Eh]
    ---------------------

    Doubly Occupied:

       1A    -15.637071     2A    -15.551216     3A    -11.300916
       4A    -11.263160     5A    -11.245653     6A     -1.352867
       7A     -1.169098     8A     -1.012098     9A     -0.824390
      10A     -0.803731    11A     -0.760666    12A     -0.610096
      13A     -0.603958    14A     -0.601922    15A     -0.570942
      16A     -0.435483    17A     -0.400464    18A     -0.320685

  @DF-RHF Final Energy:  -224.84369627814010

   => Energetics <=

    Nuclear Repulsion Energy =            164.0866958084465637
    One-Electron Energy =                -628.9319559287669108
    Two-Electron Energy =                 240.0015638421802464
    Total Energy =                       -224.8436962781401007

  Dipole Moment: [D]
     X:    -2.0431      Y:    -0.4150      Z:     3.3867     Total:     3.9769

    SAPT Results
  --------------------------------------------------------------------------------------------------------
    Electrostatics                 -0.05120913 [mEh]      -0.03213422 [kcal/mol]      -0.13444956 [kJ/mol]
      Elst10,r                     -0.05120913 [mEh]      -0.03213422 [kcal/mol]      -0.13444956 [kJ/mol]

    Exchange                       -0.00000000 [mEh]      -0.00000000 [kcal/mol]      -0.00000000 [kJ/mol]
      Exch10                       -0.00000000 [mEh]      -0.00000000 [kcal/mol]      -0.00000000 [kJ/mol]
      Exch10(S^2)                  -0.00000000 [mEh]      -0.00000000 [kcal/mol]      -0.00000000 [kJ/mol]

    Induction                      -0.00006970 [mEh]      -0.00004374 [kcal/mol]      -0.00018300 [kJ/mol]
      Ind20,r                      -0.00006662 [mEh]      -0.00004180 [kcal/mol]      -0.00017491 [kJ/mol]
      Exch-Ind20,r                  0.00000000 [mEh]       0.00000000 [kcal/mol]       0.00000000 [kJ/mol]
      delta HF,r (2)               -0.00000308 [mEh]      -0.00000193 [kcal/mol]      -0.00000809 [kJ/mol]

    Dispersion                     -0.00047536 [mEh]      -0.00029829 [kcal/mol]      -0.00124807 [kJ/mol]
      Disp20                       -0.00047536 [mEh]      -0.00029829 [kcal/mol]      -0.00124807 [kJ/mol]
      Exch-Disp20                   0.00000000 [mEh]       0.00000000 [kcal/mol]       0.00000000 [kJ/mol]
      Disp20 (SS)                  -0.00023768 [mEh]      -0.00014915 [kcal/mol]      -0.00062403 [kJ/mol]
      Disp20 (OS)                  -0.00023768 [mEh]      -0.00014915 [kcal/mol]      -0.00062403 [kJ/mol]
      Exch-Disp20 (SS)              0.00000000 [mEh]       0.00000000 [kcal/mol]       0.00000000 [kJ/mol]
      Exch-Disp20 (OS)              0.00000000 [mEh]       0.00000000 [kcal/mol]       0.00000000 [kJ/mol]

  Total HF                         -0.05127884 [mEh]      -0.03217796 [kcal/mol]      -0.13463257 [kJ/mol]
  Total SAPT0                      -0.05175420 [mEh]      -0.03247625 [kcal/mol]      -0.13588063 [kJ/mol]

  Special recipe for scaled SAPT0 (see Manual):
    Electrostatics sSAPT0          -0.05120913 [mEh]      -0.03213422 [kcal/mol]      -0.13444956 [kJ/mol]
    Exchange sSAPT0                -0.00000000 [mEh]      -0.00000000 [kcal/mol]      -0.00000000 [kJ/mol]
    Induction sSAPT0               -0.00006970 [mEh]      -0.00004374 [kcal/mol]      -0.00018300 [kJ/mol]
    Dispersion sSAPT0              -0.00047536 [mEh]      -0.00029829 [kcal/mol]      -0.00124807 [kJ/mol]
  Total sSAPT0                     -0.05175420 [mEh]      -0.03247625 [kcal/mol]      -0.13588063 [kJ/mol]
  --------------------------------------------------------------------------------------------------------

*** Psi4 exiting successfully. Buy a developer a beer!
