                               Psi4 1.4rc3

  ==> Input File <==

--------------------------------------------------------------------------
# PSI4 file produced by CrystaLattE

# Generated from:               imidazole.xyz
# Psithon input for N-mer:      2mer-0+362
# Number of atoms per monomer:  [9, 9]
# Number of replicas:           2
# COM priority:                 1.412656541890e-05
# Minimum COM separations:      21.890
# Separation priority:          2.366703079431e-05
# Minimum monomer separations:  18.431
# Cutoff priority:              6.795035048539e-07
# Nuclear repulsion energy:     359.54110603393633

memory 7 GB

molecule Dimer_0_362 {
  N           -4.29309621      -3.06837431       5.30516231
  N           -2.15847371      -2.92627296       1.72037448
  H           -0.02545587      -6.35903575       2.22046452
  H           -2.68566968      -6.53260241       6.61445954
  H           -4.74388423      -0.00609006       2.75615968
  H           -1.41045540      -2.24723147       0.00000000
  C           -1.43737991      -5.07504848       2.94065891
  C           -2.76900782      -5.14609916       5.13522880
  C           -3.85955036      -1.77728198       3.21093411
--
  N            3.78955208      -1.10331554     -35.15519699
  N            5.92417458      -1.24541690     -38.73998483
  H            8.05719243       2.18734590     -38.23989479
  H            5.39697861       2.36091255     -33.84589977
  H            3.33876407      -4.16559979     -37.70419963
  H            6.67219289      -1.92445838     -40.46035930
  C            6.64526838       0.90335863     -37.51970039
  C            5.31364047       0.97440931     -35.32513050
  C            4.22309793      -2.39440787     -37.24942519
units = au
no_com
no_reorient
}

set {
  e_convergence 10
  d_convergence 10
  scf_type df
  mp2_type df
  cc_type df
  freeze_core true
}

energy('sapt0/aug-cc-pvdz')

--------------------------------------------------------------------------

  //              Dimer HF             //
    Molecular point group: c1
  Charge       = 0
  Multiplicity = 1
  Basis Set: AUG-CC-PVDZ
    Blend: AUG-CC-PVDZ
  Basis Set: (AUG-CC-PVDZ AUX)
    Blend: AUG-CC-PVDZ-JKFIT
  @DF-RHF Final Energy:  -449.68745150331154
    Total Energy =                       -449.6874515033115358
  //            Monomer A HF           //
    Molecular point group: c1
  Multiplicity = 1
  Basis Set: AUG-CC-PVDZ
    Blend: AUG-CC-PVDZ
  Basis Set: (AUG-CC-PVDZ AUX)
    Blend: AUG-CC-PVDZ-JKFIT
  @DF-RHF Final Energy:  -224.84369627820681
    Total Energy =                       -224.8436962782068065
  //            Monomer B HF           //
    Molecular point group: c1

    Geometry (in Bohr), charge = 0, multiplicity = 1:

       Center              X                  Y                   Z               Mass
    ------------   -----------------  -----------------  -----------------  -----------------
      Gh(N)          -4.293096210000    -3.068374310000     5.305162310000    14.003074004430
      Gh(N)          -2.158473710000    -2.926272960000     1.720374480000    14.003074004430
      Gh(H)          -0.025455870000    -6.359035750000     2.220464520000     1.007825032230
      Gh(H)          -2.685669680000    -6.532602410000     6.614459540000     1.007825032230
      Gh(H)          -4.743884230000    -0.006090060000     2.756159680000     1.007825032230
      Gh(H)          -1.410455400000    -2.247231470000     0.000000000000     1.007825032230
      Gh(C)          -1.437379910000    -5.075048480000     2.940658910000    12.000000000000
      Gh(C)          -2.769007820000    -5.146099160000     5.135228800000    12.000000000000
      Gh(C)          -3.859550360000    -1.777281980000     3.210934110000    12.000000000000
         N            3.789552080000    -1.103315540000   -35.155196990000    14.003074004430
         N            5.924174580000    -1.245416900000   -38.739984830000    14.003074004430
         H            8.057192430000     2.187345900000   -38.239894790000     1.007825032230
         H            5.396978610000     2.360912550000   -33.845899770000     1.007825032230
         H            3.338764070000    -4.165599790000   -37.704199630000     1.007825032230
         H            6.672192890000    -1.924458380000   -40.460359300000     1.007825032230
         C            6.645268380000     0.903358630000   -37.519700390000    12.000000000000
         C            5.313640470000     0.974409310000   -35.325130500000    12.000000000000
         C            4.223097930000    -2.394407870000   -37.249425190000    12.000000000000

  Charge       = 0
  Multiplicity = 1
  Basis Set: AUG-CC-PVDZ
    Blend: AUG-CC-PVDZ
  Basis Set: (AUG-CC-PVDZ AUX)
    Blend: AUG-CC-PVDZ-JKFIT

    Orbital Energies [Eh]
    ---------------------

    Doubly Occupied:

       1A    -15.637071     2A    -15.551216     3A    -11.300916
       4A    -11.263160     5A    -11.245653     6A     -1.352867
       7A     -1.169098     8A     -1.012098     9A     -0.824390
      10A     -0.803731    11A     -0.760666    12A     -0.610096
      13A     -0.603958    14A     -0.601922    15A     -0.570942
      16A     -0.435483    17A     -0.400464    18A     -0.320685

  @DF-RHF Final Energy:  -224.84369627756439

   => Energetics <=

    Nuclear Repulsion Energy =            164.0866958761669707
    One-Electron Energy =                -628.9319560580614734
    Two-Electron Energy =                 240.0015639043301121
    Total Energy =                       -224.8436962775643906

  Dipole Moment: [D]
     X:     2.0431      Y:    -0.4150      Z:    -3.3867     Total:     3.9769

    SAPT Results
  --------------------------------------------------------------------------------------------------------
    Electrostatics                 -0.05884577 [mEh]      -0.03692628 [kcal/mol]      -0.15449954 [kJ/mol]
      Elst10,r                     -0.05884577 [mEh]      -0.03692628 [kcal/mol]      -0.15449954 [kJ/mol]

    Exchange                        0.00000000 [mEh]       0.00000000 [kcal/mol]       0.00000000 [kJ/mol]
      Exch10                        0.00000000 [mEh]       0.00000000 [kcal/mol]       0.00000000 [kJ/mol]
      Exch10(S^2)                   0.00000000 [mEh]       0.00000000 [kcal/mol]       0.00000000 [kJ/mol]

    Induction                      -0.00010177 [mEh]      -0.00006386 [kcal/mol]      -0.00026720 [kJ/mol]
      Ind20,r                      -0.00009387 [mEh]      -0.00005890 [kcal/mol]      -0.00024646 [kJ/mol]
      Exch-Ind20,r                  0.00000000 [mEh]       0.00000000 [kcal/mol]       0.00000000 [kJ/mol]
      delta HF,r (2)               -0.00000790 [mEh]      -0.00000496 [kcal/mol]      -0.00002075 [kJ/mol]

    Dispersion                     -0.00027546 [mEh]      -0.00017286 [kcal/mol]      -0.00072323 [kJ/mol]
      Disp20                       -0.00027546 [mEh]      -0.00017286 [kcal/mol]      -0.00072323 [kJ/mol]
      Exch-Disp20                   0.00000000 [mEh]       0.00000000 [kcal/mol]       0.00000000 [kJ/mol]
      Disp20 (SS)                  -0.00013773 [mEh]      -0.00008643 [kcal/mol]      -0.00036162 [kJ/mol]
      Disp20 (OS)                  -0.00013773 [mEh]      -0.00008643 [kcal/mol]      -0.00036162 [kJ/mol]
      Exch-Disp20 (SS)              0.00000000 [mEh]       0.00000000 [kcal/mol]       0.00000000 [kJ/mol]
      Exch-Disp20 (OS)              0.00000000 [mEh]       0.00000000 [kcal/mol]       0.00000000 [kJ/mol]

  Total HF                         -0.05894754 [mEh]      -0.03699014 [kcal/mol]      -0.15476675 [kJ/mol]
  Total SAPT0                      -0.05922300 [mEh]      -0.03716300 [kcal/mol]      -0.15548998 [kJ/mol]

  Special recipe for scaled SAPT0 (see Manual):
    Electrostatics sSAPT0          -0.05884577 [mEh]      -0.03692628 [kcal/mol]      -0.15449954 [kJ/mol]
    Exchange sSAPT0                 0.00000000 [mEh]       0.00000000 [kcal/mol]       0.00000000 [kJ/mol]
    Induction sSAPT0               -0.00010177 [mEh]      -0.00006386 [kcal/mol]      -0.00026720 [kJ/mol]
    Dispersion sSAPT0              -0.00027546 [mEh]      -0.00017286 [kcal/mol]      -0.00072323 [kJ/mol]
  Total sSAPT0                     -0.05922300 [mEh]      -0.03716300 [kcal/mol]      -0.15548998 [kJ/mol]
  --------------------------------------------------------------------------------------------------------

*** Psi4 exiting successfully. Buy a developer a beer!
