                               Psi4 1.4rc3

  ==> Input File <==

--------------------------------------------------------------------------
# PSI4 file produced by CrystaLattE

# Generated from:               imidazole.xyz
# Psithon input for N-mer:      2mer-0+285
# Number of atoms per monomer:  [9, 9]
# Number of replicas:           2
# COM priority:                 2.621468703762e-05
# Minimum COM separations:      17.814
# Separation priority:          4.661704768170e-05
# Minimum monomer separations:  14.703
# Cutoff priority:              1.677746548935e-06
# Nuclear repulsion energy:     366.60737883833997

memory 7 GB

molecule Dimer_0_285 {
  N           -4.29309621      -3.06837431       5.30516231
  N           -2.15847371      -2.92627296       1.72037448
  H           -0.02545587      -6.35903575       2.22046452
  H           -2.68566968      -6.53260241       6.61445954
  H           -4.74388423      -0.00609006       2.75615968
  H           -1.41045540      -2.24723147       0.00000000
  C           -1.43737991      -5.07504848       2.94065891
  C           -2.76900782      -5.14609916       5.13522880
  C           -3.85955036      -1.77728198       3.21093411
--
  N          -23.54026799      22.30686810       3.39867018
  N          -25.67489049      22.44896946       6.98345802
  H          -27.80790833      19.01620666       6.48336797
  H          -25.14769452      18.84264001       2.08937295
  H          -23.08947997      25.36915235       5.94767282
  H          -26.42290879      23.12801094       8.70383249
  C          -26.39598429      20.30019393       5.76317358
  C          -25.06435638      20.22914325       3.56860369
  C          -23.97381384      23.59796043       5.49289838
units = au
no_com
no_reorient
}

set {
  e_convergence 10
  d_convergence 10
  scf_type df
  mp2_type df
  cc_type df
  freeze_core true
}

energy('sapt0/aug-cc-pvdz')

--------------------------------------------------------------------------

  //              Dimer HF             //
    Molecular point group: c1
  Charge       = 0
  Multiplicity = 1
  Basis Set: AUG-CC-PVDZ
    Blend: AUG-CC-PVDZ
  Basis Set: (AUG-CC-PVDZ AUX)
    Blend: AUG-CC-PVDZ-JKFIT
  @DF-RHF Final Energy:  -449.68743452282513
    Total Energy =                       -449.6874345228251286
  //            Monomer A HF           //
    Molecular point group: c1
  Multiplicity = 1
  Basis Set: AUG-CC-PVDZ
    Blend: AUG-CC-PVDZ
  Basis Set: (AUG-CC-PVDZ AUX)
    Blend: AUG-CC-PVDZ-JKFIT
  @DF-RHF Final Energy:  -224.84369627829011
    Total Energy =                       -224.8436962782901105
  //            Monomer B HF           //
    Molecular point group: c1

    Geometry (in Bohr), charge = 0, multiplicity = 1:

       Center              X                  Y                   Z               Mass
    ------------   -----------------  -----------------  -----------------  -----------------
      Gh(N)          -4.293096210000    -3.068374310000     5.305162310000    14.003074004430
      Gh(N)          -2.158473710000    -2.926272960000     1.720374480000    14.003074004430
      Gh(H)          -0.025455870000    -6.359035750000     2.220464520000     1.007825032230
      Gh(H)          -2.685669680000    -6.532602410000     6.614459540000     1.007825032230
      Gh(H)          -4.743884230000    -0.006090060000     2.756159680000     1.007825032230
      Gh(H)          -1.410455400000    -2.247231470000     0.000000000000     1.007825032230
      Gh(C)          -1.437379910000    -5.075048480000     2.940658910000    12.000000000000
      Gh(C)          -2.769007820000    -5.146099160000     5.135228800000    12.000000000000
      Gh(C)          -3.859550360000    -1.777281980000     3.210934110000    12.000000000000
         N          -23.540267990000    22.306868100000     3.398670180000    14.003074004430
         N          -25.674890490000    22.448969460000     6.983458020000    14.003074004430
         H          -27.807908330000    19.016206660000     6.483367970000     1.007825032230
         H          -25.147694520000    18.842640010000     2.089372950000     1.007825032230
         H          -23.089479970000    25.369152350000     5.947672820000     1.007825032230
         H          -26.422908790000    23.128010940000     8.703832490000     1.007825032230
         C          -26.395984290000    20.300193930000     5.763173580000    12.000000000000
         C          -25.064356380000    20.229143250000     3.568603690000    12.000000000000
         C          -23.973813840000    23.597960430000     5.492898380000    12.000000000000

  Charge       = 0
  Multiplicity = 1
  Basis Set: AUG-CC-PVDZ
    Blend: AUG-CC-PVDZ
  Basis Set: (AUG-CC-PVDZ AUX)
    Blend: AUG-CC-PVDZ-JKFIT

    Orbital Energies [Eh]
    ---------------------

    Doubly Occupied:

       1A    -15.637071     2A    -15.551216     3A    -11.300916
       4A    -11.263160     5A    -11.245653     6A     -1.352867
       7A     -1.169098     8A     -1.012098     9A     -0.824390
      10A     -0.803731    11A     -0.760666    12A     -0.610096
      13A     -0.603958    14A     -0.601922    15A     -0.570942
      16A     -0.435483    17A     -0.400464    18A     -0.320685

  @DF-RHF Final Energy:  -224.84369627964162

   => Energetics <=

    Nuclear Repulsion Energy =            164.0866958822782919
    One-Electron Energy =                -628.9319560797769100
    Two-Electron Energy =                 240.0015639178570268
    Total Energy =                       -224.8436962796416196

  Dipole Moment: [D]
     X:    -2.0431      Y:     0.4150      Z:     3.3867     Total:     3.9769

    SAPT Results
  --------------------------------------------------------------------------------------------------------
    Electrostatics                 -0.04183449 [mEh]      -0.02625154 [kcal/mol]      -0.10983644 [kJ/mol]
      Elst10,r                     -0.04183449 [mEh]      -0.02625154 [kcal/mol]      -0.10983644 [kJ/mol]

    Exchange                        0.00000000 [mEh]       0.00000000 [kcal/mol]       0.00000000 [kJ/mol]
      Exch10                        0.00000000 [mEh]       0.00000000 [kcal/mol]       0.00000000 [kJ/mol]
      Exch10(S^2)                   0.00000000 [mEh]       0.00000000 [kcal/mol]       0.00000000 [kJ/mol]

    Induction                      -0.00013040 [mEh]      -0.00008183 [kcal/mol]      -0.00034237 [kJ/mol]
      Ind20,r                      -0.00013357 [mEh]      -0.00008382 [kcal/mol]      -0.00035070 [kJ/mol]
      Exch-Ind20,r                  0.00000000 [mEh]       0.00000000 [kcal/mol]       0.00000000 [kJ/mol]
      delta HF,r (2)                0.00000317 [mEh]       0.00000199 [kcal/mol]       0.00000833 [kJ/mol]

    Dispersion                     -0.00086937 [mEh]      -0.00054554 [kcal/mol]      -0.00228254 [kJ/mol]
      Disp20                       -0.00086937 [mEh]      -0.00054554 [kcal/mol]      -0.00228254 [kJ/mol]
      Exch-Disp20                   0.00000000 [mEh]       0.00000000 [kcal/mol]       0.00000000 [kJ/mol]
      Disp20 (SS)                  -0.00043469 [mEh]      -0.00027277 [kcal/mol]      -0.00114127 [kJ/mol]
      Disp20 (OS)                  -0.00043469 [mEh]      -0.00027277 [kcal/mol]      -0.00114127 [kJ/mol]
      Exch-Disp20 (SS)              0.00000000 [mEh]       0.00000000 [kcal/mol]       0.00000000 [kJ/mol]
      Exch-Disp20 (OS)              0.00000000 [mEh]       0.00000000 [kcal/mol]       0.00000000 [kJ/mol]

  Total HF                         -0.04196489 [mEh]      -0.02633337 [kcal/mol]      -0.11017881 [kJ/mol]
  Total SAPT0                      -0.04283427 [mEh]      -0.02687891 [kcal/mol]      -0.11246135 [kJ/mol]

  Special recipe for scaled SAPT0 (see Manual):
    Electrostatics sSAPT0          -0.04183449 [mEh]      -0.02625154 [kcal/mol]      -0.10983644 [kJ/mol]
    Exchange sSAPT0                 0.00000000 [mEh]       0.00000000 [kcal/mol]       0.00000000 [kJ/mol]
    Induction sSAPT0               -0.00013040 [mEh]      -0.00008183 [kcal/mol]      -0.00034237 [kJ/mol]
    Dispersion sSAPT0              -0.00086937 [mEh]      -0.00054554 [kcal/mol]      -0.00228254 [kJ/mol]
  Total sSAPT0                     -0.04283427 [mEh]      -0.02687891 [kcal/mol]      -0.11246135 [kJ/mol]
  --------------------------------------------------------------------------------------------------------

*** Psi4 exiting successfully. Buy a developer a beer!
