                               Psi4 1.4rc3

  ==> Input File <==

--------------------------------------------------------------------------
# PSI4 file produced by CrystaLattE

# Generated from:               imidazole.xyz
# Psithon input for N-mer:      2mer-0+70
# Number of atoms per monomer:  [9, 9]
# Number of replicas:           1
# COM priority:                 2.598379061622e-04
# Minimum COM separations:      8.293
# Separation priority:          6.283344817123e-04
# Minimum monomer separations:  6.178
# Cutoff priority:              5.381721150777e-05
# Nuclear repulsion energy:     410.88736591949214

memory 7 GB

molecule Dimer_0_70 {
  N           -4.29309621      -3.06837431       5.30516231
  N           -2.15847371      -2.92627296       1.72037448
  H           -0.02545587      -6.35903575       2.22046452
  H           -2.68566968      -6.53260241       6.61445954
  H           -4.74388423      -0.00609006       2.75615968
  H           -1.41045540      -2.24723147       0.00000000
  C           -1.43737991      -5.07504848       2.94065891
  C           -2.76900782      -5.14609916       5.13522880
  C           -3.85955036      -1.77728198       3.21093411
--
  N          -13.69417250      -6.17836402      11.49074204
  N          -15.82879500      -6.32046538      15.07552988
  H          -17.96181285      -2.88770259      14.57543984
  H          -15.30159903      -2.71413593      10.18144482
  H          -13.24338449      -9.24064828      14.03974468
  H          -16.57681331      -6.99950687      16.79590435
  C          -16.54988880      -4.17168985      13.85524544
  C          -15.21826089      -4.10063917      11.66067555
  C          -14.12771836      -7.46945636      13.58497024
units = au
no_com
no_reorient
}

set {
  e_convergence 10
  d_convergence 10
  scf_type df
  mp2_type df
  cc_type df
  freeze_core true
}

energy('sapt0/aug-cc-pvdz')

--------------------------------------------------------------------------

  //              Dimer HF             //
    Molecular point group: c1
  Charge       = 0
  Multiplicity = 1
  Basis Set: AUG-CC-PVDZ
    Blend: AUG-CC-PVDZ
  Basis Set: (AUG-CC-PVDZ AUX)
    Blend: AUG-CC-PVDZ-JKFIT
  @DF-RHF Final Energy:  -449.68608686110275
    Total Energy =                       -449.6860868611026945
  //            Monomer A HF           //
    Molecular point group: c1
  Multiplicity = 1
  Basis Set: AUG-CC-PVDZ
    Blend: AUG-CC-PVDZ
  Basis Set: (AUG-CC-PVDZ AUX)
    Blend: AUG-CC-PVDZ-JKFIT
  @DF-RHF Final Energy:  -224.84371850877810
    Total Energy =                       -224.8437185087780961
  //            Monomer B HF           //
    Molecular point group: c1

    Geometry (in Bohr), charge = 0, multiplicity = 1:

       Center              X                  Y                   Z               Mass
    ------------   -----------------  -----------------  -----------------  -----------------
      Gh(N)          -4.293096210000    -3.068374310000     5.305162310000    14.003074004430
      Gh(N)          -2.158473710000    -2.926272960000     1.720374480000    14.003074004430
      Gh(H)          -0.025455870000    -6.359035750000     2.220464520000     1.007825032230
      Gh(H)          -2.685669680000    -6.532602410000     6.614459540000     1.007825032230
      Gh(H)          -4.743884230000    -0.006090060000     2.756159680000     1.007825032230
      Gh(H)          -1.410455400000    -2.247231470000     0.000000000000     1.007825032230
      Gh(C)          -1.437379910000    -5.075048480000     2.940658910000    12.000000000000
      Gh(C)          -2.769007820000    -5.146099160000     5.135228800000    12.000000000000
      Gh(C)          -3.859550360000    -1.777281980000     3.210934110000    12.000000000000
         N          -13.694172500000    -6.178364020000    11.490742040000    14.003074004430
         N          -15.828795000000    -6.320465380000    15.075529880000    14.003074004430
         H          -17.961812850000    -2.887702590000    14.575439840000     1.007825032230
         H          -15.301599030000    -2.714135930000    10.181444820000     1.007825032230
         H          -13.243384490000    -9.240648280000    14.039744680000     1.007825032230
         H          -16.576813310000    -6.999506870000    16.795904350000     1.007825032230
         C          -16.549888800000    -4.171689850000    13.855245440000    12.000000000000
         C          -15.218260890000    -4.100639170000    11.660675550000    12.000000000000
         C          -14.127718360000    -7.469456360000    13.584970240000    12.000000000000

  Charge       = 0
  Multiplicity = 1
  Basis Set: AUG-CC-PVDZ
    Blend: AUG-CC-PVDZ
  Basis Set: (AUG-CC-PVDZ AUX)
    Blend: AUG-CC-PVDZ-JKFIT

    Orbital Energies [Eh]
    ---------------------

    Doubly Occupied:

       1A    -15.637077     2A    -15.551236     3A    -11.300917
       4A    -11.263159     5A    -11.245651     6A     -1.352870
       7A     -1.169104     8A     -1.012101     9A     -0.824393
      10A     -0.803735    11A     -0.760670    12A     -0.610100
      13A     -0.603959    14A     -0.601925    15A     -0.570949
      16A     -0.435491    17A     -0.400470    18A     -0.320687

  @DF-RHF Final Energy:  -224.84371850938686

   => Energetics <=

    Nuclear Repulsion Energy =            164.0866958182861026
    One-Electron Energy =                -628.9318403752624818
    Two-Electron Energy =                 240.0014260475895185
    Total Energy =                       -224.8437185093868607

  Dipole Moment: [D]
     X:    -2.0419      Y:    -0.4152      Z:     3.3857     Total:     3.9755

    SAPT Results
  --------------------------------------------------------------------------------------------------------
    Electrostatics                  1.39207472 [mEh]       0.87354007 [kcal/mol]       3.65489166 [kJ/mol]
      Elst10,r                      1.39207472 [mEh]       0.87354007 [kcal/mol]       3.65489166 [kJ/mol]

    Exchange                        0.00016923 [mEh]       0.00010619 [kcal/mol]       0.00044432 [kJ/mol]
      Exch10                        0.00016923 [mEh]       0.00010619 [kcal/mol]       0.00044432 [kJ/mol]
      Exch10(S^2)                   0.00016923 [mEh]       0.00010619 [kcal/mol]       0.00044432 [kJ/mol]

    Induction                      -0.04208689 [mEh]      -0.02640992 [kcal/mol]      -0.11049910 [kJ/mol]
      Ind20,r                      -0.04366998 [mEh]      -0.02740333 [kcal/mol]      -0.11465552 [kJ/mol]
      Exch-Ind20,r                  0.00005719 [mEh]       0.00003589 [kcal/mol]       0.00015016 [kJ/mol]
      delta HF,r (2)                0.00152590 [mEh]       0.00095752 [kcal/mol]       0.00400626 [kJ/mol]

    Dispersion                     -0.12297576 [mEh]      -0.07716845 [kcal/mol]      -0.32287281 [kJ/mol]
      Disp20                       -0.12303965 [mEh]      -0.07720854 [kcal/mol]      -0.32304055 [kJ/mol]
      Exch-Disp20                   0.00006389 [mEh]       0.00004009 [kcal/mol]       0.00016774 [kJ/mol]
      Disp20 (SS)                  -0.06151982 [mEh]      -0.03860427 [kcal/mol]      -0.16152027 [kJ/mol]
      Disp20 (OS)                  -0.06151982 [mEh]      -0.03860427 [kcal/mol]      -0.16152027 [kJ/mol]
      Exch-Disp20 (SS)              0.00004883 [mEh]       0.00003064 [kcal/mol]       0.00012819 [kJ/mol]
      Exch-Disp20 (OS)              0.00001506 [mEh]       0.00000945 [kcal/mol]       0.00003954 [kJ/mol]

  Total HF                          1.35015706 [mEh]       0.84723635 [kcal/mol]       3.54483688 [kJ/mol]
  Total SAPT0                       1.22718130 [mEh]       0.77006789 [kcal/mol]       3.22196407 [kJ/mol]

  Special recipe for scaled SAPT0 (see Manual):
    Electrostatics sSAPT0           1.39207472 [mEh]       0.87354007 [kcal/mol]       3.65489166 [kJ/mol]
    Exchange sSAPT0                 0.00016923 [mEh]       0.00010619 [kcal/mol]       0.00044432 [kJ/mol]
    Induction sSAPT0               -0.04208689 [mEh]      -0.02640992 [kcal/mol]      -0.11049910 [kJ/mol]
    Dispersion sSAPT0              -0.12297576 [mEh]      -0.07716845 [kcal/mol]      -0.32287281 [kJ/mol]
  Total sSAPT0                      1.22718130 [mEh]       0.77006789 [kcal/mol]       3.22196407 [kJ/mol]
  --------------------------------------------------------------------------------------------------------

*** Psi4 exiting successfully. Buy a developer a beer!
