                               Psi4 1.4rc3

  ==> Input File <==

--------------------------------------------------------------------------
# PSI4 file produced by CrystaLattE

# Generated from:               imidazole.xyz
# Psithon input for N-mer:      2mer-0+467
# Number of atoms per monomer:  [9, 9]
# Number of replicas:           2
# COM priority:                 1.698685400864e-05
# Minimum COM separations:      20.586
# Separation priority:          2.310760984811e-05
# Minimum monomer separations:  18.579
# Cutoff priority:              6.581729584479e-07
# Nuclear repulsion energy:     361.41579815029746

memory 7 GB

molecule Dimer_0_467 {
  N           -4.29309621      -3.06837431       5.30516231
  N           -2.15847371      -2.92627296       1.72037448
  H           -0.02545587      -6.35903575       2.22046452
  H           -2.68566968      -6.53260241       6.61445954
  H           -4.74388423      -0.00609006       2.75615968
  H           -1.41045540      -2.24723147       0.00000000
  C           -1.43737991      -5.07504848       2.94065891
  C           -2.76900782      -5.14609916       5.13522880
  C           -3.85955036      -1.77728198       3.21093411
--
  N          -33.83138266     -11.25341251     -18.97105327
  N          -31.69676016     -11.39551386     -22.55584110
  H          -29.56374232      -7.96275107     -22.05575106
  H          -32.22395613      -7.78918441     -17.66175604
  H          -34.28217068     -14.31569676     -21.52005591
  H          -30.94874186     -12.07455535     -24.27621558
  C          -30.97566637      -9.24673834     -21.33555667
  C          -32.30729427      -9.17568766     -19.14098678
  C          -33.39783681     -12.54450484     -21.06528147
units = au
no_com
no_reorient
}

set {
  e_convergence 10
  d_convergence 10
  scf_type df
  mp2_type df
  cc_type df
  freeze_core true
}

energy('sapt0/aug-cc-pvdz')

--------------------------------------------------------------------------

  //              Dimer HF             //
    Molecular point group: c1
  Charge       = 0
  Multiplicity = 1
  Basis Set: AUG-CC-PVDZ
    Blend: AUG-CC-PVDZ
  Basis Set: (AUG-CC-PVDZ AUX)
    Blend: AUG-CC-PVDZ-JKFIT
  @DF-RHF Final Energy:  -449.68735476775998
    Total Energy =                       -449.6873547677599845
  //            Monomer A HF           //
    Molecular point group: c1
  Multiplicity = 1
  Basis Set: AUG-CC-PVDZ
    Blend: AUG-CC-PVDZ
  Basis Set: (AUG-CC-PVDZ AUX)
    Blend: AUG-CC-PVDZ-JKFIT
  @DF-RHF Final Energy:  -224.84369627869918
    Total Energy =                       -224.8436962786991842
  //            Monomer B HF           //
    Molecular point group: c1

    Geometry (in Bohr), charge = 0, multiplicity = 1:

       Center              X                  Y                   Z               Mass
    ------------   -----------------  -----------------  -----------------  -----------------
      Gh(N)          -4.293096210000    -3.068374310000     5.305162310000    14.003074004430
      Gh(N)          -2.158473710000    -2.926272960000     1.720374480000    14.003074004430
      Gh(H)          -0.025455870000    -6.359035750000     2.220464520000     1.007825032230
      Gh(H)          -2.685669680000    -6.532602410000     6.614459540000     1.007825032230
      Gh(H)          -4.743884230000    -0.006090060000     2.756159680000     1.007825032230
      Gh(H)          -1.410455400000    -2.247231470000     0.000000000000     1.007825032230
      Gh(C)          -1.437379910000    -5.075048480000     2.940658910000    12.000000000000
      Gh(C)          -2.769007820000    -5.146099160000     5.135228800000    12.000000000000
      Gh(C)          -3.859550360000    -1.777281980000     3.210934110000    12.000000000000
         N          -33.831382660000   -11.253412510000   -18.971053270000    14.003074004430
         N          -31.696760160000   -11.395513860000   -22.555841100000    14.003074004430
         H          -29.563742320000    -7.962751070000   -22.055751060000     1.007825032230
         H          -32.223956130000    -7.789184410000   -17.661756040000     1.007825032230
         H          -34.282170680000   -14.315696760000   -21.520055910000     1.007825032230
         H          -30.948741860000   -12.074555350000   -24.276215580000     1.007825032230
         C          -30.975666370000    -9.246738340000   -21.335556670000    12.000000000000
         C          -32.307294270000    -9.175687660000   -19.140986780000    12.000000000000
         C          -33.397836810000   -12.544504840000   -21.065281470000    12.000000000000

  Charge       = 0
  Multiplicity = 1
  Basis Set: AUG-CC-PVDZ
    Blend: AUG-CC-PVDZ
  Basis Set: (AUG-CC-PVDZ AUX)
    Blend: AUG-CC-PVDZ-JKFIT

    Orbital Energies [Eh]
    ---------------------

    Doubly Occupied:

       1A    -15.637071     2A    -15.551216     3A    -11.300916
       4A    -11.263160     5A    -11.245653     6A     -1.352867
       7A     -1.169098     8A     -1.012098     9A     -0.824390
      10A     -0.803731    11A     -0.760666    12A     -0.610096
      13A     -0.603958    14A     -0.601922    15A     -0.570942
      16A     -0.435483    17A     -0.400464    18A     -0.320685

  @DF-RHF Final Energy:  -224.84369627783673

   => Energetics <=

    Nuclear Repulsion Energy =            164.0866960656388187
    One-Electron Energy =                -628.9319564408917813
    Two-Electron Energy =                 240.0015640974162352
    Total Energy =                       -224.8436962778367274

  Dipole Moment: [D]
     X:     2.0431      Y:    -0.4150      Z:    -3.3867     Total:     3.9769

    SAPT Results
  --------------------------------------------------------------------------------------------------------
    Electrostatics                  0.03781954 [mEh]       0.02373212 [kcal/mol]       0.09929519 [kJ/mol]
      Elst10,r                      0.03781954 [mEh]       0.02373212 [kcal/mol]       0.09929519 [kJ/mol]

    Exchange                        0.00000000 [mEh]       0.00000000 [kcal/mol]       0.00000000 [kJ/mol]
      Exch10                        0.00000000 [mEh]       0.00000000 [kcal/mol]       0.00000000 [kJ/mol]
      Exch10(S^2)                   0.00000000 [mEh]       0.00000000 [kcal/mol]       0.00000000 [kJ/mol]

    Induction                      -0.00003077 [mEh]      -0.00001931 [kcal/mol]      -0.00008078 [kJ/mol]
      Ind20,r                      -0.00003700 [mEh]      -0.00002322 [kcal/mol]      -0.00009715 [kJ/mol]
      Exch-Ind20,r                  0.00000000 [mEh]       0.00000000 [kcal/mol]       0.00000000 [kJ/mol]
      delta HF,r (2)                0.00000624 [mEh]       0.00000391 [kcal/mol]       0.00001637 [kJ/mol]

    Dispersion                     -0.00032313 [mEh]      -0.00020277 [kcal/mol]      -0.00084837 [kJ/mol]
      Disp20                       -0.00032313 [mEh]      -0.00020277 [kcal/mol]      -0.00084837 [kJ/mol]
      Exch-Disp20                   0.00000000 [mEh]       0.00000000 [kcal/mol]       0.00000000 [kJ/mol]
      Disp20 (SS)                  -0.00016156 [mEh]      -0.00010138 [kcal/mol]      -0.00042419 [kJ/mol]
      Disp20 (OS)                  -0.00016156 [mEh]      -0.00010138 [kcal/mol]      -0.00042419 [kJ/mol]
      Exch-Disp20 (SS)              0.00000000 [mEh]       0.00000000 [kcal/mol]       0.00000000 [kJ/mol]
      Exch-Disp20 (OS)              0.00000000 [mEh]       0.00000000 [kcal/mol]       0.00000000 [kJ/mol]

  Total HF                          0.03778878 [mEh]       0.02371281 [kcal/mol]       0.09921442 [kJ/mol]
  Total SAPT0                       0.03746565 [mEh]       0.02351005 [kcal/mol]       0.09836604 [kJ/mol]

  Special recipe for scaled SAPT0 (see Manual):
    Electrostatics sSAPT0           0.03781954 [mEh]       0.02373212 [kcal/mol]       0.09929519 [kJ/mol]
    Exchange sSAPT0                 0.00000000 [mEh]       0.00000000 [kcal/mol]       0.00000000 [kJ/mol]
    Induction sSAPT0               -0.00003077 [mEh]      -0.00001931 [kcal/mol]      -0.00008078 [kJ/mol]
    Dispersion sSAPT0              -0.00032313 [mEh]      -0.00020277 [kcal/mol]      -0.00084837 [kJ/mol]
  Total sSAPT0                      0.03746565 [mEh]       0.02351005 [kcal/mol]       0.09836604 [kJ/mol]
  --------------------------------------------------------------------------------------------------------

*** Psi4 exiting successfully. Buy a developer a beer!
