                               Psi4 1.4rc3

  ==> Input File <==

--------------------------------------------------------------------------
# PSI4 file produced by CrystaLattE

# Generated from:               imidazole.xyz
# Psithon input for N-mer:      2mer-0+516
# Number of atoms per monomer:  [9, 9]
# Number of replicas:           1
# COM priority:                 2.137273956421e-05
# Minimum COM separations:      19.068
# Separation priority:          3.113759016103e-05
# Minimum monomer separations:  16.821
# Cutoff priority:              9.795952353656e-07
# Nuclear repulsion energy:     364.03088710010917

memory 7 GB

molecule Dimer_0_516 {
  N           -4.29309621      -3.06837431       5.30516231
  N           -2.15847371      -2.92627296       1.72037448
  H           -0.02545587      -6.35903575       2.22046452
  H           -2.68566968      -6.53260241       6.61445954
  H           -4.74388423      -0.00609006       2.75615968
  H           -1.41045540      -2.24723147       0.00000000
  C           -1.43737991      -5.07504848       2.94065891
  C           -2.76900782      -5.14609916       5.13522880
  C           -3.85955036      -1.77728198       3.21093411
--
  N          -28.02245393     -26.47855795      11.49074204
  N          -30.15707643     -26.62065931      15.07552988
  H          -32.29009428     -23.18789652      14.57543984
  H          -29.62988046     -23.01432986      10.18144482
  H          -27.57166592     -29.54084221      14.03974468
  H          -30.90509474     -27.29970080      16.79590435
  C          -30.87817023     -24.47188378      13.85524544
  C          -29.54654232     -24.40083310      11.66067555
  C          -28.45599979     -27.76965029      13.58497024
units = au
no_com
no_reorient
}

set {
  e_convergence 10
  d_convergence 10
  scf_type df
  mp2_type df
  cc_type df
  freeze_core true
}

energy('sapt0/aug-cc-pvdz')

--------------------------------------------------------------------------

  //              Dimer HF             //
    Molecular point group: c1
  Charge       = 0
  Multiplicity = 1
  Basis Set: AUG-CC-PVDZ
    Blend: AUG-CC-PVDZ
  Basis Set: (AUG-CC-PVDZ AUX)
    Blend: AUG-CC-PVDZ-JKFIT
  @DF-RHF Final Energy:  -449.68736891340205
    Total Energy =                       -449.6873689134019969
  //            Monomer A HF           //
    Molecular point group: c1
  Multiplicity = 1
  Basis Set: AUG-CC-PVDZ
    Blend: AUG-CC-PVDZ
  Basis Set: (AUG-CC-PVDZ AUX)
    Blend: AUG-CC-PVDZ-JKFIT
  @DF-RHF Final Energy:  -224.84369627866141
    Total Energy =                       -224.8436962786614117
  //            Monomer B HF           //
    Molecular point group: c1

    Geometry (in Bohr), charge = 0, multiplicity = 1:

       Center              X                  Y                   Z               Mass
    ------------   -----------------  -----------------  -----------------  -----------------
      Gh(N)          -4.293096210000    -3.068374310000     5.305162310000    14.003074004430
      Gh(N)          -2.158473710000    -2.926272960000     1.720374480000    14.003074004430
      Gh(H)          -0.025455870000    -6.359035750000     2.220464520000     1.007825032230
      Gh(H)          -2.685669680000    -6.532602410000     6.614459540000     1.007825032230
      Gh(H)          -4.743884230000    -0.006090060000     2.756159680000     1.007825032230
      Gh(H)          -1.410455400000    -2.247231470000     0.000000000000     1.007825032230
      Gh(C)          -1.437379910000    -5.075048480000     2.940658910000    12.000000000000
      Gh(C)          -2.769007820000    -5.146099160000     5.135228800000    12.000000000000
      Gh(C)          -3.859550360000    -1.777281980000     3.210934110000    12.000000000000
         N          -28.022453930000   -26.478557950000    11.490742040000    14.003074004430
         N          -30.157076430000   -26.620659310000    15.075529880000    14.003074004430
         H          -32.290094280000   -23.187896520000    14.575439840000     1.007825032230
         H          -29.629880460000   -23.014329860000    10.181444820000     1.007825032230
         H          -27.571665920000   -29.540842210000    14.039744680000     1.007825032230
         H          -30.905094740000   -27.299700800000    16.795904350000     1.007825032230
         C          -30.878170230000   -24.471883780000    13.855245440000    12.000000000000
         C          -29.546542320000   -24.400833100000    11.660675550000    12.000000000000
         C          -28.455999790000   -27.769650290000    13.584970240000    12.000000000000

  Charge       = 0
  Multiplicity = 1
  Basis Set: AUG-CC-PVDZ
    Blend: AUG-CC-PVDZ
  Basis Set: (AUG-CC-PVDZ AUX)
    Blend: AUG-CC-PVDZ-JKFIT

    Orbital Energies [Eh]
    ---------------------

    Doubly Occupied:

       1A    -15.637071     2A    -15.551216     3A    -11.300916
       4A    -11.263160     5A    -11.245653     6A     -1.352867
       7A     -1.169098     8A     -1.012098     9A     -0.824390
      10A     -0.803731    11A     -0.760666    12A     -0.610096
      13A     -0.603958    14A     -0.601922    15A     -0.570942
      16A     -0.435483    17A     -0.400464    18A     -0.320685

  @DF-RHF Final Energy:  -224.84369627853283

   => Energetics <=

    Nuclear Repulsion Energy =            164.0866958182861026
    One-Electron Energy =                -628.9319559499598427
    Two-Electron Energy =                 240.0015638531409081
    Total Energy =                       -224.8436962785328319

  Dipole Moment: [D]
     X:    -2.0431      Y:    -0.4150      Z:     3.3867     Total:     3.9769

    SAPT Results
  --------------------------------------------------------------------------------------------------------
    Electrostatics                  0.02372748 [mEh]       0.01488922 [kcal/mol]       0.06229648 [kJ/mol]
      Elst10,r                      0.02372748 [mEh]       0.01488922 [kcal/mol]       0.06229648 [kJ/mol]

    Exchange                        0.00000000 [mEh]       0.00000000 [kcal/mol]       0.00000000 [kJ/mol]
      Exch10                        0.00000000 [mEh]       0.00000000 [kcal/mol]       0.00000000 [kJ/mol]
      Exch10(S^2)                   0.00000000 [mEh]       0.00000000 [kcal/mol]       0.00000000 [kJ/mol]

    Induction                      -0.00008369 [mEh]      -0.00005251 [kcal/mol]      -0.00021972 [kJ/mol]
      Ind20,r                      -0.00010003 [mEh]      -0.00006277 [kcal/mol]      -0.00026264 [kJ/mol]
      Exch-Ind20,r                  0.00000000 [mEh]       0.00000000 [kcal/mol]       0.00000000 [kJ/mol]
      delta HF,r (2)                0.00001635 [mEh]       0.00001026 [kcal/mol]       0.00004292 [kJ/mol]

    Dispersion                     -0.00054238 [mEh]      -0.00034035 [kcal/mol]      -0.00142403 [kJ/mol]
      Disp20                       -0.00054238 [mEh]      -0.00034035 [kcal/mol]      -0.00142403 [kJ/mol]
      Exch-Disp20                   0.00000000 [mEh]       0.00000000 [kcal/mol]       0.00000000 [kJ/mol]
      Disp20 (SS)                  -0.00027119 [mEh]      -0.00017018 [kcal/mol]      -0.00071201 [kJ/mol]
      Disp20 (OS)                  -0.00027119 [mEh]      -0.00017018 [kcal/mol]      -0.00071201 [kJ/mol]
      Exch-Disp20 (SS)              0.00000000 [mEh]       0.00000000 [kcal/mol]       0.00000000 [kJ/mol]
      Exch-Disp20 (OS)              0.00000000 [mEh]       0.00000000 [kcal/mol]       0.00000000 [kJ/mol]

  Total HF                          0.02364379 [mEh]       0.01483670 [kcal/mol]       0.06207677 [kJ/mol]
  Total SAPT0                       0.02310141 [mEh]       0.01449635 [kcal/mol]       0.06065274 [kJ/mol]

  Special recipe for scaled SAPT0 (see Manual):
    Electrostatics sSAPT0           0.02372748 [mEh]       0.01488922 [kcal/mol]       0.06229648 [kJ/mol]
    Exchange sSAPT0                 0.00000000 [mEh]       0.00000000 [kcal/mol]       0.00000000 [kJ/mol]
    Induction sSAPT0               -0.00008369 [mEh]      -0.00005251 [kcal/mol]      -0.00021972 [kJ/mol]
    Dispersion sSAPT0              -0.00054238 [mEh]      -0.00034035 [kcal/mol]      -0.00142403 [kJ/mol]
  Total sSAPT0                      0.02310141 [mEh]       0.01449635 [kcal/mol]       0.06065274 [kJ/mol]
  --------------------------------------------------------------------------------------------------------

*** Psi4 exiting successfully. Buy a developer a beer!
