                               Psi4 1.4rc3

  ==> Input File <==

--------------------------------------------------------------------------
# PSI4 file produced by CrystaLattE

# Generated from:               imidazole.xyz
# Psithon input for N-mer:      2mer-0+473
# Number of atoms per monomer:  [9, 9]
# Number of replicas:           2
# COM priority:                 1.599145129556e-05
# Minimum COM separations:      21.004
# Separation priority:          2.445701173163e-05
# Minimum monomer separations:  18.231
# Cutoff priority:              7.099120084472e-07
# Nuclear repulsion energy:     360.8199577538605

memory 7 GB

molecule Dimer_0_473 {
  N           -4.29309621      -3.06837431       5.30516231
  N           -2.15847371      -2.92627296       1.72037448
  H           -0.02545587      -6.35903575       2.22046452
  H           -2.68566968      -6.53260241       6.61445954
  H           -4.74388423      -0.00609006       2.75615968
  H           -1.41045540      -2.24723147       0.00000000
  C           -1.43737991      -5.07504848       2.94065891
  C           -2.76900782      -5.14609916       5.13522880
  C           -3.85955036      -1.77728198       3.21093411
--
  N          -19.50310124     -31.55360644     -18.97105327
  N          -17.36847874     -31.69570779     -22.55584110
  H          -15.23546089     -28.26294500     -22.05575106
  H          -17.89567471     -28.08937834     -17.66175604
  H          -19.95388925     -34.61589069     -21.52005591
  H          -16.62046043     -32.37474928     -24.27621558
  C          -16.64738494     -29.54693227     -21.33555667
  C          -17.97901284     -29.47588159     -19.14098678
  C          -19.06955538     -32.84469877     -21.06528147
units = au
no_com
no_reorient
}

set {
  e_convergence 10
  d_convergence 10
  scf_type df
  mp2_type df
  cc_type df
  freeze_core true
}

energy('sapt0/aug-cc-pvdz')

--------------------------------------------------------------------------

  //              Dimer HF             //
    Molecular point group: c1
  Charge       = 0
  Multiplicity = 1
  Basis Set: AUG-CC-PVDZ
    Blend: AUG-CC-PVDZ
  Basis Set: (AUG-CC-PVDZ AUX)
    Blend: AUG-CC-PVDZ-JKFIT
  @DF-RHF Final Energy:  -449.68736365825680
    Total Energy =                       -449.6873636582567997
  //            Monomer A HF           //
    Molecular point group: c1
  Multiplicity = 1
  Basis Set: AUG-CC-PVDZ
    Blend: AUG-CC-PVDZ
  Basis Set: (AUG-CC-PVDZ AUX)
    Blend: AUG-CC-PVDZ-JKFIT
  @DF-RHF Final Energy:  -224.84369627841471
    Total Energy =                       -224.8436962784147113
  //            Monomer B HF           //
    Molecular point group: c1

    Geometry (in Bohr), charge = 0, multiplicity = 1:

       Center              X                  Y                   Z               Mass
    ------------   -----------------  -----------------  -----------------  -----------------
      Gh(N)          -4.293096210000    -3.068374310000     5.305162310000    14.003074004430
      Gh(N)          -2.158473710000    -2.926272960000     1.720374480000    14.003074004430
      Gh(H)          -0.025455870000    -6.359035750000     2.220464520000     1.007825032230
      Gh(H)          -2.685669680000    -6.532602410000     6.614459540000     1.007825032230
      Gh(H)          -4.743884230000    -0.006090060000     2.756159680000     1.007825032230
      Gh(H)          -1.410455400000    -2.247231470000     0.000000000000     1.007825032230
      Gh(C)          -1.437379910000    -5.075048480000     2.940658910000    12.000000000000
      Gh(C)          -2.769007820000    -5.146099160000     5.135228800000    12.000000000000
      Gh(C)          -3.859550360000    -1.777281980000     3.210934110000    12.000000000000
         N          -19.503101240000   -31.553606440000   -18.971053270000    14.003074004430
         N          -17.368478740000   -31.695707790000   -22.555841100000    14.003074004430
         H          -15.235460890000   -28.262945000000   -22.055751060000     1.007825032230
         H          -17.895674710000   -28.089378340000   -17.661756040000     1.007825032230
         H          -19.953889250000   -34.615890690000   -21.520055910000     1.007825032230
         H          -16.620460430000   -32.374749280000   -24.276215580000     1.007825032230
         C          -16.647384940000   -29.546932270000   -21.335556670000    12.000000000000
         C          -17.979012840000   -29.475881590000   -19.140986780000    12.000000000000
         C          -19.069555380000   -32.844698770000   -21.065281470000    12.000000000000

  Charge       = 0
  Multiplicity = 1
  Basis Set: AUG-CC-PVDZ
    Blend: AUG-CC-PVDZ
  Basis Set: (AUG-CC-PVDZ AUX)
    Blend: AUG-CC-PVDZ-JKFIT

    Orbital Energies [Eh]
    ---------------------

    Doubly Occupied:

       1A    -15.637071     2A    -15.551216     3A    -11.300916
       4A    -11.263160     5A    -11.245653     6A     -1.352867
       7A     -1.169098     8A     -1.012098     9A     -0.824390
      10A     -0.803731    11A     -0.760666    12A     -0.610096
      13A     -0.603958    14A     -0.601922    15A     -0.570942
      16A     -0.435483    17A     -0.400464    18A     -0.320685

  @DF-RHF Final Energy:  -224.84369627706675

   => Energetics <=

    Nuclear Repulsion Energy =            164.0866960224558113
    One-Electron Energy =                -628.9319563547633152
    Two-Electron Energy =                 240.0015640552407206
    Total Energy =                       -224.8436962770667549

  Dipole Moment: [D]
     X:     2.0431      Y:    -0.4150      Z:    -3.3867     Total:     3.9769

    SAPT Results
  --------------------------------------------------------------------------------------------------------
    Electrostatics                  0.02891913 [mEh]       0.01814703 [kcal/mol]       0.07592715 [kJ/mol]
      Elst10,r                      0.02891913 [mEh]       0.01814703 [kcal/mol]       0.07592715 [kJ/mol]

    Exchange                        0.00000000 [mEh]       0.00000000 [kcal/mol]       0.00000000 [kJ/mol]
      Exch10                        0.00000000 [mEh]       0.00000000 [kcal/mol]       0.00000000 [kJ/mol]
      Exch10(S^2)                   0.00000000 [mEh]       0.00000000 [kcal/mol]       0.00000000 [kJ/mol]

    Induction                      -0.00002190 [mEh]      -0.00001374 [kcal/mol]      -0.00005750 [kJ/mol]
      Ind20,r                      -0.00003146 [mEh]      -0.00001974 [kcal/mol]      -0.00008260 [kJ/mol]
      Exch-Ind20,r                  0.00000000 [mEh]       0.00000000 [kcal/mol]       0.00000000 [kJ/mol]
      delta HF,r (2)                0.00000956 [mEh]       0.00000600 [kcal/mol]       0.00002510 [kJ/mol]

    Dispersion                     -0.00031471 [mEh]      -0.00019748 [kcal/mol]      -0.00082626 [kJ/mol]
      Disp20                       -0.00031471 [mEh]      -0.00019748 [kcal/mol]      -0.00082626 [kJ/mol]
      Exch-Disp20                   0.00000000 [mEh]       0.00000000 [kcal/mol]       0.00000000 [kJ/mol]
      Disp20 (SS)                  -0.00015735 [mEh]      -0.00009874 [kcal/mol]      -0.00041313 [kJ/mol]
      Disp20 (OS)                  -0.00015735 [mEh]      -0.00009874 [kcal/mol]      -0.00041313 [kJ/mol]
      Exch-Disp20 (SS)              0.00000000 [mEh]       0.00000000 [kcal/mol]       0.00000000 [kJ/mol]
      Exch-Disp20 (OS)              0.00000000 [mEh]       0.00000000 [kcal/mol]       0.00000000 [kJ/mol]

  Total HF                          0.02889722 [mEh]       0.01813328 [kcal/mol]       0.07586965 [kJ/mol]
  Total SAPT0                       0.02858252 [mEh]       0.01793580 [kcal/mol]       0.07504339 [kJ/mol]

  Special recipe for scaled SAPT0 (see Manual):
    Electrostatics sSAPT0           0.02891913 [mEh]       0.01814703 [kcal/mol]       0.07592715 [kJ/mol]
    Exchange sSAPT0                 0.00000000 [mEh]       0.00000000 [kcal/mol]       0.00000000 [kJ/mol]
    Induction sSAPT0               -0.00002190 [mEh]      -0.00001374 [kcal/mol]      -0.00005750 [kJ/mol]
    Dispersion sSAPT0              -0.00031471 [mEh]      -0.00019748 [kcal/mol]      -0.00082626 [kJ/mol]
  Total sSAPT0                      0.02858252 [mEh]       0.01793580 [kcal/mol]       0.07504339 [kJ/mol]
  --------------------------------------------------------------------------------------------------------

*** Psi4 exiting successfully. Buy a developer a beer!
