                               Psi4 1.4rc3

  ==> Input File <==

--------------------------------------------------------------------------
# PSI4 file produced by CrystaLattE

# Generated from:               imidazole.xyz
# Psithon input for N-mer:      2mer-0+243
# Number of atoms per monomer:  [9, 9]
# Number of replicas:           1
# COM priority:                 2.512752149371e-05
# Minimum COM separations:      18.067
# Separation priority:          3.241034288800e-05
# Minimum monomer separations:  16.597
# Cutoff priority:              1.033343790977e-06
# Nuclear repulsion energy:     365.98622959539296

memory 7 GB

molecule Dimer_0_243 {
  N           -4.29309621      -3.06837431       5.30516231
  N           -2.15847371      -2.92627296       1.72037448
  H           -0.02545587      -6.35903575       2.22046452
  H           -2.68566968      -6.53260241       6.61445954
  H           -4.74388423      -0.00609006       2.75615968
  H           -1.41045540      -2.24723147       0.00000000
  C           -1.43737991      -5.07504848       2.94065891
  C           -2.76900782      -5.14609916       5.13522880
  C           -3.85955036      -1.77728198       3.21093411
--
  N           14.96239035      24.27192687      11.49074204
  N           12.82776785      24.12982552      15.07552988
  H           10.69475001      27.56258831      14.57543984
  H           13.35496382      27.73615497      10.18144482
  H           15.41317837      21.20964262      14.03974468
  H           12.07974955      23.45078403      16.79590435
  C           12.10667405      26.27860104      13.85524544
  C           13.43830196      26.34965172      11.66067555
  C           14.52884450      22.98083454      13.58497024
units = au
no_com
no_reorient
}

set {
  e_convergence 10
  d_convergence 10
  scf_type df
  mp2_type df
  cc_type df
  freeze_core true
}

energy('sapt0/aug-cc-pvdz')

--------------------------------------------------------------------------

  //              Dimer HF             //
    Molecular point group: c1
  Charge       = 0
  Multiplicity = 1
  Basis Set: AUG-CC-PVDZ
    Blend: AUG-CC-PVDZ
  Basis Set: (AUG-CC-PVDZ AUX)
    Blend: AUG-CC-PVDZ-JKFIT
  @DF-RHF Final Energy:  -449.68746107841514
    Total Energy =                       -449.6874610784151400
  //            Monomer A HF           //
    Molecular point group: c1
  Multiplicity = 1
  Basis Set: AUG-CC-PVDZ
    Blend: AUG-CC-PVDZ
  Basis Set: (AUG-CC-PVDZ AUX)
    Blend: AUG-CC-PVDZ-JKFIT
  @DF-RHF Final Energy:  -224.84369627908382
    Total Energy =                       -224.8436962790838152
  //            Monomer B HF           //
    Molecular point group: c1

    Geometry (in Bohr), charge = 0, multiplicity = 1:

       Center              X                  Y                   Z               Mass
    ------------   -----------------  -----------------  -----------------  -----------------
      Gh(N)          -4.293096210000    -3.068374310000     5.305162310000    14.003074004430
      Gh(N)          -2.158473710000    -2.926272960000     1.720374480000    14.003074004430
      Gh(H)          -0.025455870000    -6.359035750000     2.220464520000     1.007825032230
      Gh(H)          -2.685669680000    -6.532602410000     6.614459540000     1.007825032230
      Gh(H)          -4.743884230000    -0.006090060000     2.756159680000     1.007825032230
      Gh(H)          -1.410455400000    -2.247231470000     0.000000000000     1.007825032230
      Gh(C)          -1.437379910000    -5.075048480000     2.940658910000    12.000000000000
      Gh(C)          -2.769007820000    -5.146099160000     5.135228800000    12.000000000000
      Gh(C)          -3.859550360000    -1.777281980000     3.210934110000    12.000000000000
         N           14.962390350000    24.271926870000    11.490742040000    14.003074004430
         N           12.827767850000    24.129825520000    15.075529880000    14.003074004430
         H           10.694750010000    27.562588310000    14.575439840000     1.007825032230
         H           13.354963820000    27.736154970000    10.181444820000     1.007825032230
         H           15.413178370000    21.209642620000    14.039744680000     1.007825032230
         H           12.079749550000    23.450784030000    16.795904350000     1.007825032230
         C           12.106674050000    26.278601040000    13.855245440000    12.000000000000
         C           13.438301960000    26.349651720000    11.660675550000    12.000000000000
         C           14.528844500000    22.980834540000    13.584970240000    12.000000000000

  Charge       = 0
  Multiplicity = 1
  Basis Set: AUG-CC-PVDZ
    Blend: AUG-CC-PVDZ
  Basis Set: (AUG-CC-PVDZ AUX)
    Blend: AUG-CC-PVDZ-JKFIT

    Orbital Energies [Eh]
    ---------------------

    Doubly Occupied:

       1A    -15.637071     2A    -15.551216     3A    -11.300916
       4A    -11.263160     5A    -11.245653     6A     -1.352867
       7A     -1.169098     8A     -1.012098     9A     -0.824390
      10A     -0.803731    11A     -0.760666    12A     -0.610096
      13A     -0.603958    14A     -0.601922    15A     -0.570942
      16A     -0.435483    17A     -0.400464    18A     -0.320685

  @DF-RHF Final Energy:  -224.84369627893665

   => Energetics <=

    Nuclear Repulsion Energy =            164.0866959077876004
    One-Electron Energy =                -628.9319561270958729
    Two-Electron Energy =                 240.0015639403716250
    Total Energy =                       -224.8436962789366476

  Dipole Moment: [D]
     X:    -2.0431      Y:    -0.4150      Z:     3.3867     Total:     3.9769

    SAPT Results
  --------------------------------------------------------------------------------------------------------
    Electrostatics                 -0.06842213 [mEh]      -0.04293553 [kcal/mol]      -0.17964227 [kJ/mol]
      Elst10,r                     -0.06842213 [mEh]      -0.04293553 [kcal/mol]      -0.17964227 [kJ/mol]

    Exchange                       -0.00000000 [mEh]      -0.00000000 [kcal/mol]      -0.00000000 [kJ/mol]
      Exch10                       -0.00000000 [mEh]      -0.00000000 [kcal/mol]      -0.00000000 [kJ/mol]
      Exch10(S^2)                  -0.00000000 [mEh]      -0.00000000 [kcal/mol]      -0.00000000 [kJ/mol]

    Induction                      -0.00009827 [mEh]      -0.00006166 [kcal/mol]      -0.00025800 [kJ/mol]
      Ind20,r                      -0.00008992 [mEh]      -0.00005642 [kcal/mol]      -0.00023608 [kJ/mol]
      Exch-Ind20,r                  0.00000000 [mEh]       0.00000000 [kcal/mol]       0.00000000 [kJ/mol]
      delta HF,r (2)               -0.00000835 [mEh]      -0.00000524 [kcal/mol]      -0.00002193 [kJ/mol]

    Dispersion                     -0.00065558 [mEh]      -0.00041138 [kcal/mol]      -0.00172122 [kJ/mol]
      Disp20                       -0.00065558 [mEh]      -0.00041138 [kcal/mol]      -0.00172122 [kJ/mol]
      Exch-Disp20                   0.00000000 [mEh]       0.00000000 [kcal/mol]       0.00000000 [kJ/mol]
      Disp20 (SS)                  -0.00032779 [mEh]      -0.00020569 [kcal/mol]      -0.00086061 [kJ/mol]
      Disp20 (OS)                  -0.00032779 [mEh]      -0.00020569 [kcal/mol]      -0.00086061 [kJ/mol]
      Exch-Disp20 (SS)              0.00000000 [mEh]       0.00000000 [kcal/mol]       0.00000000 [kJ/mol]
      Exch-Disp20 (OS)              0.00000000 [mEh]       0.00000000 [kcal/mol]       0.00000000 [kJ/mol]

  Total HF                         -0.06852039 [mEh]      -0.04299720 [kcal/mol]      -0.17990027 [kJ/mol]
  Total SAPT0                      -0.06917597 [mEh]      -0.04340858 [kcal/mol]      -0.18162149 [kJ/mol]

  Special recipe for scaled SAPT0 (see Manual):
    Electrostatics sSAPT0          -0.06842213 [mEh]      -0.04293553 [kcal/mol]      -0.17964227 [kJ/mol]
    Exchange sSAPT0                -0.00000000 [mEh]      -0.00000000 [kcal/mol]      -0.00000000 [kJ/mol]
    Induction sSAPT0               -0.00009827 [mEh]      -0.00006166 [kcal/mol]      -0.00025800 [kJ/mol]
    Dispersion sSAPT0              -0.00065558 [mEh]      -0.00041138 [kcal/mol]      -0.00172122 [kJ/mol]
  Total sSAPT0                     -0.06917597 [mEh]      -0.04340858 [kcal/mol]      -0.18162149 [kJ/mol]
  --------------------------------------------------------------------------------------------------------

*** Psi4 exiting successfully. Buy a developer a beer!
