                               Psi4 1.4rc3

  ==> Input File <==

--------------------------------------------------------------------------
# PSI4 file produced by CrystaLattE

# Generated from:               imidazole.xyz
# Psithon input for N-mer:      2mer-0+49
# Number of atoms per monomer:  [9, 9]
# Number of replicas:           2
# COM priority:                 5.521572705255e-05
# Minimum COM separations:      13.897
# Separation priority:          1.570225700306e-04
# Minimum monomer separations:  9.809
# Cutoff priority:              8.471287901367e-06
# Nuclear repulsion energy:     377.82943869110926

memory 7 GB

molecule Dimer_0_49 {
  N           -4.29309621      -3.06837431       5.30516231
  N           -2.15847371      -2.92627296       1.72037448
  H           -0.02545587      -6.35903575       2.22046452
  H           -2.68566968      -6.53260241       6.61445954
  H           -4.74388423      -0.00609006       2.75615968
  H           -1.41045540      -2.24723147       0.00000000
  C           -1.43737991      -5.07504848       2.94065891
  C           -2.76900782      -5.14609916       5.13522880
  C           -3.85955036      -1.77728198       3.21093411
--
  N           14.08066676      12.15677114     -12.78547354
  N           11.94604426      12.29887249      -9.20068571
  H            9.81302641       8.86610970      -9.70077575
  H           12.47324023       8.69254304     -14.09477077
  H           14.53145477      15.21905539     -10.23647090
  H           11.19802595      12.97791398      -7.48031123
  C           11.22495046      10.15009697     -10.42097014
  C           12.55657837      10.07904629     -12.61554003
  C           13.64712090      13.44786347     -10.69124534
units = au
no_com
no_reorient
}

set {
  e_convergence 10
  d_convergence 10
  scf_type df
  mp2_type df
  cc_type df
  freeze_core true
}

energy('sapt0/aug-cc-pvdz')

--------------------------------------------------------------------------

  //              Dimer HF             //
    Molecular point group: c1
  Charge       = 0
  Multiplicity = 1
  Basis Set: AUG-CC-PVDZ
    Blend: AUG-CC-PVDZ
  Basis Set: (AUG-CC-PVDZ AUX)
    Blend: AUG-CC-PVDZ-JKFIT
  @DF-RHF Final Energy:  -449.68727532391716
    Total Energy =                       -449.6872753239172198
  //            Monomer A HF           //
    Molecular point group: c1
  Multiplicity = 1
  Basis Set: AUG-CC-PVDZ
    Blend: AUG-CC-PVDZ
  Basis Set: (AUG-CC-PVDZ AUX)
    Blend: AUG-CC-PVDZ-JKFIT
  @DF-RHF Final Energy:  -224.84369649546298
    Total Energy =                       -224.8436964954629786
  //            Monomer B HF           //
    Molecular point group: c1

    Geometry (in Bohr), charge = 0, multiplicity = 1:

       Center              X                  Y                   Z               Mass
    ------------   -----------------  -----------------  -----------------  -----------------
      Gh(N)          -4.293096210000    -3.068374310000     5.305162310000    14.003074004430
      Gh(N)          -2.158473710000    -2.926272960000     1.720374480000    14.003074004430
      Gh(H)          -0.025455870000    -6.359035750000     2.220464520000     1.007825032230
      Gh(H)          -2.685669680000    -6.532602410000     6.614459540000     1.007825032230
      Gh(H)          -4.743884230000    -0.006090060000     2.756159680000     1.007825032230
      Gh(H)          -1.410455400000    -2.247231470000     0.000000000000     1.007825032230
      Gh(C)          -1.437379910000    -5.075048480000     2.940658910000    12.000000000000
      Gh(C)          -2.769007820000    -5.146099160000     5.135228800000    12.000000000000
      Gh(C)          -3.859550360000    -1.777281980000     3.210934110000    12.000000000000
         N           14.080666760000    12.156771140000   -12.785473540000    14.003074004430
         N           11.946044260000    12.298872490000    -9.200685710000    14.003074004430
         H            9.813026410000     8.866109700000    -9.700775750000     1.007825032230
         H           12.473240230000     8.692543040000   -14.094770770000     1.007825032230
         H           14.531454770000    15.219055390000   -10.236470900000     1.007825032230
         H           11.198025950000    12.977913980000    -7.480311230000     1.007825032230
         C           11.224950460000    10.150096970000   -10.420970140000    12.000000000000
         C           12.556578370000    10.079046290000   -12.615540030000    12.000000000000
         C           13.647120900000    13.447863470000   -10.691245340000    12.000000000000

  Charge       = 0
  Multiplicity = 1
  Basis Set: AUG-CC-PVDZ
    Blend: AUG-CC-PVDZ
  Basis Set: (AUG-CC-PVDZ AUX)
    Blend: AUG-CC-PVDZ-JKFIT

    Orbital Energies [Eh]
    ---------------------

    Doubly Occupied:

       1A    -15.637071     2A    -15.551216     3A    -11.300916
       4A    -11.263159     5A    -11.245653     6A     -1.352867
       7A     -1.169098     8A     -1.012098     9A     -0.824389
      10A     -0.803731    11A     -0.760666    12A     -0.610096
      13A     -0.603958    14A     -0.601922    15A     -0.570942
      16A     -0.435483    17A     -0.400464    18A     -0.320685

  @DF-RHF Final Energy:  -224.84369665458865

   => Energetics <=

    Nuclear Repulsion Energy =            164.0866960309782883
    One-Electron Energy =                -628.9319611671189705
    Two-Electron Energy =                 240.0015684815520558
    Total Energy =                       -224.8436966545886548

  Dipole Moment: [D]
     X:    -2.0431      Y:     0.4150      Z:     3.3867     Total:     3.9769

    SAPT Results
  --------------------------------------------------------------------------------------------------------
    Electrostatics                  0.11914535 [mEh]       0.07476484 [kcal/mol]       0.31281607 [kJ/mol]
      Elst10,r                      0.11914535 [mEh]       0.07476484 [kcal/mol]       0.31281607 [kJ/mol]

    Exchange                        0.00000027 [mEh]       0.00000017 [kcal/mol]       0.00000071 [kJ/mol]
      Exch10                        0.00000027 [mEh]       0.00000017 [kcal/mol]       0.00000071 [kJ/mol]
      Exch10(S^2)                   0.00000027 [mEh]       0.00000017 [kcal/mol]       0.00000071 [kJ/mol]

    Induction                      -0.00131949 [mEh]      -0.00082799 [kcal/mol]      -0.00346431 [kJ/mol]
      Ind20,r                      -0.00129796 [mEh]      -0.00081448 [kcal/mol]      -0.00340778 [kJ/mol]
      Exch-Ind20,r                  0.00000053 [mEh]       0.00000034 [kcal/mol]       0.00000140 [kJ/mol]
      delta HF,r (2)               -0.00002206 [mEh]      -0.00001385 [kcal/mol]      -0.00005793 [kJ/mol]

    Dispersion                     -0.00467556 [mEh]      -0.00293396 [kcal/mol]      -0.01227569 [kJ/mol]
      Disp20                       -0.00467560 [mEh]      -0.00293398 [kcal/mol]      -0.01227578 [kJ/mol]
      Exch-Disp20                   0.00000004 [mEh]       0.00000002 [kcal/mol]       0.00000010 [kJ/mol]
      Disp20 (SS)                  -0.00233780 [mEh]      -0.00146699 [kcal/mol]      -0.00613789 [kJ/mol]
      Disp20 (OS)                  -0.00233780 [mEh]      -0.00146699 [kcal/mol]      -0.00613789 [kJ/mol]
      Exch-Disp20 (SS)              0.00000003 [mEh]       0.00000002 [kcal/mol]       0.00000008 [kJ/mol]
      Exch-Disp20 (OS)              0.00000001 [mEh]       0.00000000 [kcal/mol]       0.00000002 [kJ/mol]

  Total HF                          0.11782613 [mEh]       0.07393702 [kcal/mol]       0.30935247 [kJ/mol]
  Total SAPT0                       0.11315057 [mEh]       0.07100306 [kcal/mol]       0.29707678 [kJ/mol]

  Special recipe for scaled SAPT0 (see Manual):
    Electrostatics sSAPT0           0.11914535 [mEh]       0.07476484 [kcal/mol]       0.31281607 [kJ/mol]
    Exchange sSAPT0                 0.00000027 [mEh]       0.00000017 [kcal/mol]       0.00000071 [kJ/mol]
    Induction sSAPT0               -0.00131949 [mEh]      -0.00082799 [kcal/mol]      -0.00346431 [kJ/mol]
    Dispersion sSAPT0              -0.00467556 [mEh]      -0.00293396 [kcal/mol]      -0.01227569 [kJ/mol]
  Total sSAPT0                      0.11315057 [mEh]       0.07100306 [kcal/mol]       0.29707678 [kJ/mol]
  --------------------------------------------------------------------------------------------------------

*** Psi4 exiting successfully. Buy a developer a beer!
