                               Psi4 1.4rc3

  ==> Input File <==

--------------------------------------------------------------------------
# PSI4 file produced by CrystaLattE

# Generated from:               imidazole.xyz
# Psithon input for N-mer:      2mer-0+30
# Number of atoms per monomer:  [9, 9]
# Number of replicas:           2
# COM priority:                 9.403240671392e-05
# Minimum COM separations:      11.637
# Separation priority:          3.043780000346e-04
# Minimum monomer separations:  7.867
# Cutoff priority:              2.047470620959e-05
# Nuclear repulsion energy:     387.6930237443491

memory 7 GB

molecule Dimer_0_30 {
  N           -4.29309621      -3.06837431       5.30516231
  N           -2.15847371      -2.92627296       1.72037448
  H           -0.02545587      -6.35903575       2.22046452
  H           -2.68566968      -6.53260241       6.61445954
  H           -4.74388423      -0.00609006       2.75615968
  H           -1.41045540      -2.24723147       0.00000000
  C           -1.43737991      -5.07504848       2.94065891
  C           -2.76900782      -5.14609916       5.13522880
  C           -3.85955036      -1.77728198       3.21093411
--
  N           14.08066676       2.00667417     -12.78547354
  N           11.94604426       2.14877553      -9.20068571
  H            9.81302641      -1.28398727      -9.70077575
  H           12.47324023      -1.45755392     -14.09477077
  H           14.53145477       5.06895842     -10.23647090
  H           11.19802595       2.82781701      -7.48031123
  C           11.22495046      -0.00000000     -10.42097014
  C           12.55657837      -0.07105068     -12.61554003
  C           13.64712090       3.29776650     -10.69124534
units = au
no_com
no_reorient
}

set {
  e_convergence 10
  d_convergence 10
  scf_type df
  mp2_type df
  cc_type df
  freeze_core true
}

energy('sapt0/aug-cc-pvdz')

--------------------------------------------------------------------------

  //              Dimer HF             //
    Molecular point group: c1
  Charge       = 0
  Multiplicity = 1
  Basis Set: AUG-CC-PVDZ
    Blend: AUG-CC-PVDZ
  Basis Set: (AUG-CC-PVDZ AUX)
    Blend: AUG-CC-PVDZ-JKFIT
  @DF-RHF Final Energy:  -449.68702785963791
    Total Energy =                       -449.6870278596378512
  //            Monomer A HF           //
    Molecular point group: c1
  Multiplicity = 1
  Basis Set: AUG-CC-PVDZ
    Blend: AUG-CC-PVDZ
  Basis Set: (AUG-CC-PVDZ AUX)
    Blend: AUG-CC-PVDZ-JKFIT
  @DF-RHF Final Energy:  -224.84369801870193
    Total Energy =                       -224.8436980187019287
  //            Monomer B HF           //
    Molecular point group: c1

    Geometry (in Bohr), charge = 0, multiplicity = 1:

       Center              X                  Y                   Z               Mass
    ------------   -----------------  -----------------  -----------------  -----------------
      Gh(N)          -4.293096210000    -3.068374310000     5.305162310000    14.003074004430
      Gh(N)          -2.158473710000    -2.926272960000     1.720374480000    14.003074004430
      Gh(H)          -0.025455870000    -6.359035750000     2.220464520000     1.007825032230
      Gh(H)          -2.685669680000    -6.532602410000     6.614459540000     1.007825032230
      Gh(H)          -4.743884230000    -0.006090060000     2.756159680000     1.007825032230
      Gh(H)          -1.410455400000    -2.247231470000     0.000000000000     1.007825032230
      Gh(C)          -1.437379910000    -5.075048480000     2.940658910000    12.000000000000
      Gh(C)          -2.769007820000    -5.146099160000     5.135228800000    12.000000000000
      Gh(C)          -3.859550360000    -1.777281980000     3.210934110000    12.000000000000
         N           14.080666760000     2.006674170000   -12.785473540000    14.003074004430
         N           11.946044260000     2.148775530000    -9.200685710000    14.003074004430
         H            9.813026410000    -1.283987270000    -9.700775750000     1.007825032230
         H           12.473240230000    -1.457553920000   -14.094770770000     1.007825032230
         H           14.531454770000     5.068958420000   -10.236470900000     1.007825032230
         H           11.198025950000     2.827817010000    -7.480311230000     1.007825032230
         C           11.224950460000     0.000000000000   -10.420970140000    12.000000000000
         C           12.556578370000    -0.071050680000   -12.615540030000    12.000000000000
         C           13.647120900000     3.297766500000   -10.691245340000    12.000000000000

  Charge       = 0
  Multiplicity = 1
  Basis Set: AUG-CC-PVDZ
    Blend: AUG-CC-PVDZ
  Basis Set: (AUG-CC-PVDZ AUX)
    Blend: AUG-CC-PVDZ-JKFIT

    Orbital Energies [Eh]
    ---------------------

    Doubly Occupied:

       1A    -15.637070     2A    -15.551216     3A    -11.300916
       4A    -11.263155     5A    -11.245651     6A     -1.352866
       7A     -1.169098     8A     -1.012098     9A     -0.824389
      10A     -0.803731    11A     -0.760666    12A     -0.610096
      13A     -0.603958    14A     -0.601923    15A     -0.570942
      16A     -0.435483    17A     -0.400464    18A     -0.320685

  @DF-RHF Final Energy:  -224.84369964808715

   => Energetics <=

    Nuclear Repulsion Energy =            164.0866960153085756
    One-Electron Energy =                -628.9319787542918903
    Two-Electron Energy =                 240.0015830908961618
    Total Energy =                       -224.8436996480871528

  Dipole Moment: [D]
     X:    -2.0430      Y:     0.4150      Z:     3.3867     Total:     3.9769

    SAPT Results
  --------------------------------------------------------------------------------------------------------
    Electrostatics                  0.37458454 [mEh]       0.23505534 [kcal/mol]       0.98347156 [kJ/mol]
      Elst10,r                      0.37458454 [mEh]       0.23505534 [kcal/mol]       0.98347156 [kJ/mol]

    Exchange                        0.00000114 [mEh]       0.00000072 [kcal/mol]       0.00000299 [kJ/mol]
      Exch10                        0.00000114 [mEh]       0.00000072 [kcal/mol]       0.00000299 [kJ/mol]
      Exch10(S^2)                   0.00000114 [mEh]       0.00000072 [kcal/mol]       0.00000299 [kJ/mol]

    Induction                      -0.00477852 [mEh]      -0.00299857 [kcal/mol]      -0.01254602 [kJ/mol]
      Ind20,r                      -0.00485465 [mEh]      -0.00304634 [kcal/mol]      -0.01274588 [kJ/mol]
      Exch-Ind20,r                  0.00000307 [mEh]       0.00000193 [kcal/mol]       0.00000806 [kJ/mol]
      delta HF,r (2)                0.00007305 [mEh]       0.00004584 [kcal/mol]       0.00019180 [kJ/mol]

    Dispersion                     -0.01490241 [mEh]      -0.00935141 [kcal/mol]      -0.03912628 [kJ/mol]
      Disp20                       -0.01490267 [mEh]      -0.00935157 [kcal/mol]      -0.03912696 [kJ/mol]
      Exch-Disp20                   0.00000026 [mEh]       0.00000016 [kcal/mol]       0.00000068 [kJ/mol]
      Disp20 (SS)                  -0.00745134 [mEh]      -0.00467578 [kcal/mol]      -0.01956348 [kJ/mol]
      Disp20 (OS)                  -0.00745134 [mEh]      -0.00467578 [kcal/mol]      -0.01956348 [kJ/mol]
      Exch-Disp20 (SS)              0.00000021 [mEh]       0.00000013 [kcal/mol]       0.00000056 [kJ/mol]
      Exch-Disp20 (OS)              0.00000004 [mEh]       0.00000003 [kcal/mol]       0.00000012 [kJ/mol]

  Total HF                          0.36980715 [mEh]       0.23205749 [kcal/mol]       0.97092854 [kJ/mol]
  Total SAPT0                       0.35490474 [mEh]       0.22270609 [kcal/mol]       0.93180226 [kJ/mol]

  Special recipe for scaled SAPT0 (see Manual):
    Electrostatics sSAPT0           0.37458454 [mEh]       0.23505534 [kcal/mol]       0.98347156 [kJ/mol]
    Exchange sSAPT0                 0.00000114 [mEh]       0.00000072 [kcal/mol]       0.00000299 [kJ/mol]
    Induction sSAPT0               -0.00477852 [mEh]      -0.00299857 [kcal/mol]      -0.01254602 [kJ/mol]
    Dispersion sSAPT0              -0.01490241 [mEh]      -0.00935141 [kcal/mol]      -0.03912628 [kJ/mol]
  Total sSAPT0                      0.35490474 [mEh]       0.22270609 [kcal/mol]       0.93180226 [kJ/mol]
  --------------------------------------------------------------------------------------------------------

*** Psi4 exiting successfully. Buy a developer a beer!
