                               Psi4 1.4rc3

  ==> Input File <==

--------------------------------------------------------------------------
# PSI4 file produced by CrystaLattE

# Generated from:               imidazole.xyz
# Psithon input for N-mer:      2mer-0+53
# Number of atoms per monomer:  [9, 9]
# Number of replicas:           2
# COM priority:                 6.363346508692e-05
# Minimum COM separations:      13.255
# Separation priority:          1.553138568379e-04
# Minimum monomer separations:  9.845
# Cutoff priority:              8.348599085440e-06
# Nuclear repulsion energy:     379.96375802590035

memory 7 GB

molecule Dimer_0_53 {
  N           -4.29309621      -3.06837431       5.30516231
  N           -2.15847371      -2.92627296       1.72037448
  H           -0.02545587      -6.35903575       2.22046452
  H           -2.68566968      -6.53260241       6.61445954
  H           -4.74388423      -0.00609006       2.75615968
  H           -1.41045540      -2.24723147       0.00000000
  C           -1.43737991      -5.07504848       2.94065891
  C           -2.76900782      -5.14609916       5.13522880
  C           -3.85955036      -1.77728198       3.21093411
--
  N            0.18908973      19.19687839      -2.78690955
  N            2.32371223      19.05477703      -6.37169738
  H            4.45673008      22.48753983      -5.87160734
  H            1.79651626      22.66110648      -1.47761232
  H           -0.26169828      16.13459414      -5.33591219
  H            3.07173054      18.37573555      -8.09207186
  C            3.04480603      21.20355256      -5.15141295
  C            1.71317812      21.27460324      -2.95684306
  C            0.62263559      17.90578606      -4.88113775
units = au
no_com
no_reorient
}

set {
  e_convergence 10
  d_convergence 10
  scf_type df
  mp2_type df
  cc_type df
  freeze_core true
}

energy('sapt0/aug-cc-pvdz')

--------------------------------------------------------------------------

  //              Dimer HF             //
    Molecular point group: c1
  Charge       = 0
  Multiplicity = 1
  Basis Set: AUG-CC-PVDZ
    Blend: AUG-CC-PVDZ
  Basis Set: (AUG-CC-PVDZ AUX)
    Blend: AUG-CC-PVDZ-JKFIT
  @DF-RHF Final Energy:  -449.68726845026777
    Total Energy =                       -449.6872684502677657
  //            Monomer A HF           //
    Molecular point group: c1
  Multiplicity = 1
  Basis Set: AUG-CC-PVDZ
    Blend: AUG-CC-PVDZ
  Basis Set: (AUG-CC-PVDZ AUX)
    Blend: AUG-CC-PVDZ-JKFIT
  @DF-RHF Final Energy:  -224.84369660327334
    Total Energy =                       -224.8436966032733437
  //            Monomer B HF           //
    Molecular point group: c1

    Geometry (in Bohr), charge = 0, multiplicity = 1:

       Center              X                  Y                   Z               Mass
    ------------   -----------------  -----------------  -----------------  -----------------
      Gh(N)          -4.293096210000    -3.068374310000     5.305162310000    14.003074004430
      Gh(N)          -2.158473710000    -2.926272960000     1.720374480000    14.003074004430
      Gh(H)          -0.025455870000    -6.359035750000     2.220464520000     1.007825032230
      Gh(H)          -2.685669680000    -6.532602410000     6.614459540000     1.007825032230
      Gh(H)          -4.743884230000    -0.006090060000     2.756159680000     1.007825032230
      Gh(H)          -1.410455400000    -2.247231470000     0.000000000000     1.007825032230
      Gh(C)          -1.437379910000    -5.075048480000     2.940658910000    12.000000000000
      Gh(C)          -2.769007820000    -5.146099160000     5.135228800000    12.000000000000
      Gh(C)          -3.859550360000    -1.777281980000     3.210934110000    12.000000000000
         N            0.189089730000    19.196878390000    -2.786909550000    14.003074004430
         N            2.323712230000    19.054777030000    -6.371697380000    14.003074004430
         H            4.456730080000    22.487539830000    -5.871607340000     1.007825032230
         H            1.796516260000    22.661106480000    -1.477612320000     1.007825032230
         H           -0.261698280000    16.134594140000    -5.335912190000     1.007825032230
         H            3.071730540000    18.375735550000    -8.092071860000     1.007825032230
         C            3.044806030000    21.203552560000    -5.151412950000    12.000000000000
         C            1.713178120000    21.274603240000    -2.956843060000    12.000000000000
         C            0.622635590000    17.905786060000    -4.881137750000    12.000000000000

  Charge       = 0
  Multiplicity = 1
  Basis Set: AUG-CC-PVDZ
    Blend: AUG-CC-PVDZ
  Basis Set: (AUG-CC-PVDZ AUX)
    Blend: AUG-CC-PVDZ-JKFIT

    Orbital Energies [Eh]
    ---------------------

    Doubly Occupied:

       1A    -15.637071     2A    -15.551216     3A    -11.300916
       4A    -11.263160     5A    -11.245653     6A     -1.352867
       7A     -1.169098     8A     -1.012098     9A     -0.824390
      10A     -0.803731    11A     -0.760666    12A     -0.610096
      13A     -0.603958    14A     -0.601922    15A     -0.570942
      16A     -0.435483    17A     -0.400464    18A     -0.320685

  @DF-RHF Final Energy:  -224.84369651604405

   => Energetics <=

    Nuclear Repulsion Energy =            164.0866960153085472
    One-Electron Energy =                -628.9319583583435360
    Two-Electron Energy =                 240.0015658269909125
    Total Energy =                       -224.8436965160440479

  Dipole Moment: [D]
     X:     2.0431      Y:    -0.4150      Z:    -3.3867     Total:     3.9769

    SAPT Results
  --------------------------------------------------------------------------------------------------------
    Electrostatics                  0.12575724 [mEh]       0.07891386 [kcal/mol]       0.33017558 [kJ/mol]
      Elst10,r                      0.12575724 [mEh]       0.07891386 [kcal/mol]       0.33017558 [kJ/mol]

    Exchange                        0.00000013 [mEh]       0.00000008 [kcal/mol]       0.00000033 [kJ/mol]
      Exch10                        0.00000013 [mEh]       0.00000008 [kcal/mol]       0.00000033 [kJ/mol]
      Exch10(S^2)                   0.00000013 [mEh]       0.00000008 [kcal/mol]       0.00000033 [kJ/mol]

    Induction                      -0.00108831 [mEh]      -0.00068293 [kcal/mol]      -0.00285736 [kJ/mol]
      Ind20,r                      -0.00108622 [mEh]      -0.00068162 [kcal/mol]      -0.00285188 [kJ/mol]
      Exch-Ind20,r                  0.00000035 [mEh]       0.00000022 [kcal/mol]       0.00000091 [kJ/mol]
      delta HF,r (2)               -0.00000244 [mEh]      -0.00000153 [kcal/mol]      -0.00000640 [kJ/mol]

    Dispersion                     -0.00573898 [mEh]      -0.00360126 [kcal/mol]      -0.01506769 [kJ/mol]
      Disp20                       -0.00573901 [mEh]      -0.00360129 [kcal/mol]      -0.01506778 [kJ/mol]
      Exch-Disp20                   0.00000004 [mEh]       0.00000002 [kcal/mol]       0.00000010 [kJ/mol]
      Disp20 (SS)                  -0.00286951 [mEh]      -0.00180064 [kcal/mol]      -0.00753389 [kJ/mol]
      Disp20 (OS)                  -0.00286951 [mEh]      -0.00180064 [kcal/mol]      -0.00753389 [kJ/mol]
      Exch-Disp20 (SS)              0.00000003 [mEh]       0.00000002 [kcal/mol]       0.00000008 [kJ/mol]
      Exch-Disp20 (OS)              0.00000001 [mEh]       0.00000000 [kcal/mol]       0.00000002 [kJ/mol]

  Total HF                          0.12466905 [mEh]       0.07823101 [kcal/mol]       0.32731854 [kJ/mol]
  Total SAPT0                       0.11893007 [mEh]       0.07462975 [kcal/mol]       0.31225086 [kJ/mol]

  Special recipe for scaled SAPT0 (see Manual):
    Electrostatics sSAPT0           0.12575724 [mEh]       0.07891386 [kcal/mol]       0.33017558 [kJ/mol]
    Exchange sSAPT0                 0.00000013 [mEh]       0.00000008 [kcal/mol]       0.00000033 [kJ/mol]
    Induction sSAPT0               -0.00108831 [mEh]      -0.00068293 [kcal/mol]      -0.00285736 [kJ/mol]
    Dispersion sSAPT0              -0.00573898 [mEh]      -0.00360126 [kcal/mol]      -0.01506769 [kJ/mol]
  Total sSAPT0                      0.11893007 [mEh]       0.07462975 [kcal/mol]       0.31225086 [kJ/mol]
  --------------------------------------------------------------------------------------------------------

*** Psi4 exiting successfully. Buy a developer a beer!
