                               Psi4 1.4rc3

  ==> Input File <==

--------------------------------------------------------------------------
# PSI4 file produced by CrystaLattE

# Generated from:               imidazole.xyz
# Psithon input for N-mer:      2mer-0+199
# Number of atoms per monomer:  [9, 9]
# Number of replicas:           2
# COM priority:                 2.744773561812e-05
# Minimum COM separations:      17.543
# Separation priority:          4.577476595076e-05
# Minimum monomer separations:  14.793
# Cutoff priority:              1.637450486296e-06
# Nuclear repulsion energy:     367.2283470031499

memory 7 GB

molecule Dimer_0_199 {
  N           -4.29309621      -3.06837431       5.30516231
  N           -2.15847371      -2.92627296       1.72037448
  H           -0.02545587      -6.35903575       2.22046452
  H           -2.68566968      -6.53260241       6.61445954
  H           -4.74388423      -0.00609006       2.75615968
  H           -1.41045540      -2.24723147       0.00000000
  C           -1.43737991      -5.07504848       2.94065891
  C           -2.76900782      -5.14609916       5.13522880
  C           -3.85955036      -1.77728198       3.21093411
--
  N           10.48020441      22.30686810      19.58281390
  N            8.34558191      22.44896946      23.16760174
  H            6.21256406      19.01620666      22.66751170
  H            8.87277788      18.84264001      18.27351668
  H           10.93099242      25.36915235      22.13181654
  H            7.59756360      23.12801094      24.88797622
  C            7.62448811      20.30019393      21.94731730
  C            8.95611602      20.22914325      19.75274741
  C           10.04665856      23.59796043      21.67704210
units = au
no_com
no_reorient
}

set {
  e_convergence 10
  d_convergence 10
  scf_type df
  mp2_type df
  cc_type df
  freeze_core true
}

energy('sapt0/aug-cc-pvdz')

--------------------------------------------------------------------------

  //              Dimer HF             //
    Molecular point group: c1
  Charge       = 0
  Multiplicity = 1
  Basis Set: AUG-CC-PVDZ
    Blend: AUG-CC-PVDZ
  Basis Set: (AUG-CC-PVDZ AUX)
    Blend: AUG-CC-PVDZ-JKFIT
  @DF-RHF Final Energy:  -449.68744202548783
    Total Energy =                       -449.6874420254878260
  //            Monomer A HF           //
    Molecular point group: c1
  Multiplicity = 1
  Basis Set: AUG-CC-PVDZ
    Blend: AUG-CC-PVDZ
  Basis Set: (AUG-CC-PVDZ AUX)
    Blend: AUG-CC-PVDZ-JKFIT
  @DF-RHF Final Energy:  -224.84369627873622
    Total Energy =                       -224.8436962787362177
  //            Monomer B HF           //
    Molecular point group: c1

    Geometry (in Bohr), charge = 0, multiplicity = 1:

       Center              X                  Y                   Z               Mass
    ------------   -----------------  -----------------  -----------------  -----------------
      Gh(N)          -4.293096210000    -3.068374310000     5.305162310000    14.003074004430
      Gh(N)          -2.158473710000    -2.926272960000     1.720374480000    14.003074004430
      Gh(H)          -0.025455870000    -6.359035750000     2.220464520000     1.007825032230
      Gh(H)          -2.685669680000    -6.532602410000     6.614459540000     1.007825032230
      Gh(H)          -4.743884230000    -0.006090060000     2.756159680000     1.007825032230
      Gh(H)          -1.410455400000    -2.247231470000     0.000000000000     1.007825032230
      Gh(C)          -1.437379910000    -5.075048480000     2.940658910000    12.000000000000
      Gh(C)          -2.769007820000    -5.146099160000     5.135228800000    12.000000000000
      Gh(C)          -3.859550360000    -1.777281980000     3.210934110000    12.000000000000
         N           10.480204410000    22.306868100000    19.582813900000    14.003074004430
         N            8.345581910000    22.448969460000    23.167601740000    14.003074004430
         H            6.212564060000    19.016206660000    22.667511700000     1.007825032230
         H            8.872777880000    18.842640010000    18.273516680000     1.007825032230
         H           10.930992420000    25.369152350000    22.131816540000     1.007825032230
         H            7.597563600000    23.128010940000    24.887976220000     1.007825032230
         C            7.624488110000    20.300193930000    21.947317300000    12.000000000000
         C            8.956116020000    20.229143250000    19.752747410000    12.000000000000
         C           10.046658560000    23.597960430000    21.677042100000    12.000000000000

  Charge       = 0
  Multiplicity = 1
  Basis Set: AUG-CC-PVDZ
    Blend: AUG-CC-PVDZ
  Basis Set: (AUG-CC-PVDZ AUX)
    Blend: AUG-CC-PVDZ-JKFIT

    Orbital Energies [Eh]
    ---------------------

    Doubly Occupied:

       1A    -15.637071     2A    -15.551216     3A    -11.300916
       4A    -11.263160     5A    -11.245653     6A     -1.352867
       7A     -1.169098     8A     -1.012098     9A     -0.824390
      10A     -0.803731    11A     -0.760666    12A     -0.610096
      13A     -0.603958    14A     -0.601922    15A     -0.570942
      16A     -0.435483    17A     -0.400464    18A     -0.320685

  @DF-RHF Final Energy:  -224.84369627851521

   => Energetics <=

    Nuclear Repulsion Energy =            164.0866958519447110
    One-Electron Energy =                -628.9319560219835239
    Two-Electron Energy =                 240.0015638915236309
    Total Energy =                       -224.8436962785152105

  Dipole Moment: [D]
     X:    -2.0431      Y:     0.4150      Z:     3.3867     Total:     3.9769

    SAPT Results
  --------------------------------------------------------------------------------------------------------
    Electrostatics                 -0.04937265 [mEh]      -0.03098181 [kcal/mol]      -0.12962789 [kJ/mol]
      Elst10,r                     -0.04937265 [mEh]      -0.03098181 [kcal/mol]      -0.12962789 [kJ/mol]

    Exchange                        0.00000000 [mEh]       0.00000000 [kcal/mol]       0.00000000 [kJ/mol]
      Exch10                        0.00000000 [mEh]       0.00000000 [kcal/mol]       0.00000000 [kJ/mol]
      Exch10(S^2)                   0.00000000 [mEh]       0.00000000 [kcal/mol]       0.00000000 [kJ/mol]

    Induction                      -0.00009558 [mEh]      -0.00005998 [kcal/mol]      -0.00025095 [kJ/mol]
      Ind20,r                      -0.00010568 [mEh]      -0.00006631 [kcal/mol]      -0.00027745 [kJ/mol]
      Exch-Ind20,r                  0.00000000 [mEh]       0.00000000 [kcal/mol]       0.00000000 [kJ/mol]
      delta HF,r (2)                0.00001009 [mEh]       0.00000633 [kcal/mol]       0.00002650 [kJ/mol]

    Dispersion                     -0.00094239 [mEh]      -0.00059136 [kcal/mol]      -0.00247423 [kJ/mol]
      Disp20                       -0.00094239 [mEh]      -0.00059136 [kcal/mol]      -0.00247423 [kJ/mol]
      Exch-Disp20                   0.00000000 [mEh]       0.00000000 [kcal/mol]       0.00000000 [kJ/mol]
      Disp20 (SS)                  -0.00047119 [mEh]      -0.00029568 [kcal/mol]      -0.00123712 [kJ/mol]
      Disp20 (OS)                  -0.00047119 [mEh]      -0.00029568 [kcal/mol]      -0.00123712 [kJ/mol]
      Exch-Disp20 (SS)              0.00000000 [mEh]       0.00000000 [kcal/mol]       0.00000000 [kJ/mol]
      Exch-Disp20 (OS)              0.00000000 [mEh]       0.00000000 [kcal/mol]       0.00000000 [kJ/mol]

  Total HF                         -0.04946824 [mEh]      -0.03104179 [kcal/mol]      -0.12987884 [kJ/mol]
  Total SAPT0                      -0.05041062 [mEh]      -0.03163314 [kcal/mol]      -0.13235307 [kJ/mol]

  Special recipe for scaled SAPT0 (see Manual):
    Electrostatics sSAPT0          -0.04937265 [mEh]      -0.03098181 [kcal/mol]      -0.12962789 [kJ/mol]
    Exchange sSAPT0                 0.00000000 [mEh]       0.00000000 [kcal/mol]       0.00000000 [kJ/mol]
    Induction sSAPT0               -0.00009558 [mEh]      -0.00005998 [kcal/mol]      -0.00025095 [kJ/mol]
    Dispersion sSAPT0              -0.00094239 [mEh]      -0.00059136 [kcal/mol]      -0.00247423 [kJ/mol]
  Total sSAPT0                     -0.05041062 [mEh]      -0.03163314 [kcal/mol]      -0.13235307 [kJ/mol]
  --------------------------------------------------------------------------------------------------------

*** Psi4 exiting successfully. Buy a developer a beer!
