                               Psi4 1.4rc3

  ==> Input File <==

--------------------------------------------------------------------------
# PSI4 file produced by CrystaLattE

# Generated from:               imidazole.xyz
# Psithon input for N-mer:      2mer-0+147
# Number of atoms per monomer:  [9, 9]
# Number of replicas:           2
# COM priority:                 4.826263162121e-05
# Minimum COM separations:      14.534
# Separation priority:          1.022153904747e-04
# Minimum monomer separations:  11.318
# Cutoff priority:              4.779198357928e-06
# Nuclear repulsion energy:     375.44201855488484

memory 7 GB

molecule Dimer_0_147 {
  N           -4.29309621      -3.06837431       5.30516231
  N           -2.15847371      -2.92627296       1.72037448
  H           -0.02545587      -6.35903575       2.22046452
  H           -2.68566968      -6.53260241       6.61445954
  H           -4.74388423      -0.00609006       2.75615968
  H           -1.41045540      -2.24723147       0.00000000
  C           -1.43737991      -5.07504848       2.94065891
  C           -2.76900782      -5.14609916       5.13522880
  C           -3.85955036      -1.77728198       3.21093411
--
  N            4.67127568     -23.36856824     -10.87898141
  N            6.80589818     -23.22646689     -14.46376924
  H            8.93891602     -26.65922968     -13.96367920
  H            6.27870221     -26.83279634      -9.56968418
  H            4.22048766     -20.30628399     -13.42798405
  H            7.55391648     -22.54742540     -16.18414372
  C            7.52699198     -25.37524241     -13.24348481
  C            6.19536407     -25.44629309     -11.04891492
  C            5.10482153     -22.07747591     -12.97320961
units = au
no_com
no_reorient
}

set {
  e_convergence 10
  d_convergence 10
  scf_type df
  mp2_type df
  cc_type df
  freeze_core true
}

energy('sapt0/aug-cc-pvdz')

--------------------------------------------------------------------------

  //              Dimer HF             //
    Molecular point group: c1
  Charge       = 0
  Multiplicity = 1
  Basis Set: AUG-CC-PVDZ
    Blend: AUG-CC-PVDZ
  Basis Set: (AUG-CC-PVDZ AUX)
    Blend: AUG-CC-PVDZ-JKFIT
  @DF-RHF Final Energy:  -449.68738975907263
    Total Energy =                       -449.6873897590726301
  //            Monomer A HF           //
    Molecular point group: c1
  Multiplicity = 1
  Basis Set: AUG-CC-PVDZ
    Blend: AUG-CC-PVDZ
  Basis Set: (AUG-CC-PVDZ AUX)
    Blend: AUG-CC-PVDZ-JKFIT
  @DF-RHF Final Energy:  -224.84369630790491
    Total Energy =                       -224.8436963079049065
  //            Monomer B HF           //
    Molecular point group: c1

    Geometry (in Bohr), charge = 0, multiplicity = 1:

       Center              X                  Y                   Z               Mass
    ------------   -----------------  -----------------  -----------------  -----------------
      Gh(N)          -4.293096210000    -3.068374310000     5.305162310000    14.003074004430
      Gh(N)          -2.158473710000    -2.926272960000     1.720374480000    14.003074004430
      Gh(H)          -0.025455870000    -6.359035750000     2.220464520000     1.007825032230
      Gh(H)          -2.685669680000    -6.532602410000     6.614459540000     1.007825032230
      Gh(H)          -4.743884230000    -0.006090060000     2.756159680000     1.007825032230
      Gh(H)          -1.410455400000    -2.247231470000     0.000000000000     1.007825032230
      Gh(C)          -1.437379910000    -5.075048480000     2.940658910000    12.000000000000
      Gh(C)          -2.769007820000    -5.146099160000     5.135228800000    12.000000000000
      Gh(C)          -3.859550360000    -1.777281980000     3.210934110000    12.000000000000
         N            4.671275680000   -23.368568240000   -10.878981410000    14.003074004430
         N            6.805898180000   -23.226466890000   -14.463769240000    14.003074004430
         H            8.938916020000   -26.659229680000   -13.963679200000     1.007825032230
         H            6.278702210000   -26.832796340000    -9.569684180000     1.007825032230
         H            4.220487660000   -20.306283990000   -13.427984050000     1.007825032230
         H            7.553916480000   -22.547425400000   -16.184143720000     1.007825032230
         C            7.526991980000   -25.375242410000   -13.243484810000    12.000000000000
         C            6.195364070000   -25.446293090000   -11.048914920000    12.000000000000
         C            5.104821530000   -22.077475910000   -12.973209610000    12.000000000000

  Charge       = 0
  Multiplicity = 1
  Basis Set: AUG-CC-PVDZ
    Blend: AUG-CC-PVDZ
  Basis Set: (AUG-CC-PVDZ AUX)
    Blend: AUG-CC-PVDZ-JKFIT

    Orbital Energies [Eh]
    ---------------------

    Doubly Occupied:

       1A    -15.637071     2A    -15.551216     3A    -11.300916
       4A    -11.263160     5A    -11.245653     6A     -1.352867
       7A     -1.169098     8A     -1.012098     9A     -0.824390
      10A     -0.803731    11A     -0.760666    12A     -0.610096
      13A     -0.603958    14A     -0.601922    15A     -0.570942
      16A     -0.435483    17A     -0.400464    18A     -0.320685

  @DF-RHF Final Energy:  -224.84369630456206

   => Energetics <=

    Nuclear Repulsion Energy =            164.0866959989803604
    One-Electron Energy =                -628.9319565221430821
    Two-Electron Energy =                 240.0015642186006630
    Total Energy =                       -224.8436963045620587

  Dipole Moment: [D]
     X:     2.0431      Y:     0.4150      Z:    -3.3867     Total:     3.9769

    SAPT Results
  --------------------------------------------------------------------------------------------------------
    Electrostatics                  0.00346744 [mEh]       0.00217585 [kcal/mol]       0.00910377 [kJ/mol]
      Elst10,r                      0.00346744 [mEh]       0.00217585 [kcal/mol]       0.00910377 [kJ/mol]

    Exchange                        0.00000002 [mEh]       0.00000001 [kcal/mol]       0.00000006 [kJ/mol]
      Exch10                        0.00000002 [mEh]       0.00000001 [kcal/mol]       0.00000006 [kJ/mol]
      Exch10(S^2)                   0.00000002 [mEh]       0.00000001 [kcal/mol]       0.00000006 [kJ/mol]

    Induction                      -0.00061407 [mEh]      -0.00038533 [kcal/mol]      -0.00161224 [kJ/mol]
      Ind20,r                      -0.00064956 [mEh]      -0.00040761 [kcal/mol]      -0.00170543 [kJ/mol]
      Exch-Ind20,r                  0.00000005 [mEh]       0.00000003 [kcal/mol]       0.00000013 [kJ/mol]
      delta HF,r (2)                0.00003544 [mEh]       0.00002224 [kcal/mol]       0.00009306 [kJ/mol]

    Dispersion                     -0.00333969 [mEh]      -0.00209569 [kcal/mol]      -0.00876835 [kJ/mol]
      Disp20                       -0.00333969 [mEh]      -0.00209569 [kcal/mol]      -0.00876836 [kJ/mol]
      Exch-Disp20                   0.00000000 [mEh]       0.00000000 [kcal/mol]       0.00000001 [kJ/mol]
      Disp20 (SS)                  -0.00166985 [mEh]      -0.00104784 [kcal/mol]      -0.00438418 [kJ/mol]
      Disp20 (OS)                  -0.00166985 [mEh]      -0.00104784 [kcal/mol]      -0.00438418 [kJ/mol]
      Exch-Disp20 (SS)              0.00000000 [mEh]       0.00000000 [kcal/mol]       0.00000001 [kJ/mol]
      Exch-Disp20 (OS)              0.00000000 [mEh]       0.00000000 [kcal/mol]       0.00000000 [kJ/mol]

  Total HF                          0.00285339 [mEh]       0.00179053 [kcal/mol]       0.00749159 [kJ/mol]
  Total SAPT0                      -0.00048629 [mEh]      -0.00030515 [kcal/mol]      -0.00127676 [kJ/mol]

  Special recipe for scaled SAPT0 (see Manual):
    Electrostatics sSAPT0           0.00346744 [mEh]       0.00217585 [kcal/mol]       0.00910377 [kJ/mol]
    Exchange sSAPT0                 0.00000002 [mEh]       0.00000001 [kcal/mol]       0.00000006 [kJ/mol]
    Induction sSAPT0               -0.00061407 [mEh]      -0.00038533 [kcal/mol]      -0.00161224 [kJ/mol]
    Dispersion sSAPT0              -0.00333969 [mEh]      -0.00209569 [kcal/mol]      -0.00876835 [kJ/mol]
  Total sSAPT0                     -0.00048629 [mEh]      -0.00030515 [kcal/mol]      -0.00127676 [kJ/mol]
  --------------------------------------------------------------------------------------------------------

*** Psi4 exiting successfully. Buy a developer a beer!
