                               Psi4 1.4rc3

  ==> Input File <==

--------------------------------------------------------------------------
# PSI4 file produced by CrystaLattE

# Generated from:               imidazole.xyz
# Psithon input for N-mer:      2mer-0+401
# Number of atoms per monomer:  [9, 9]
# Number of replicas:           2
# COM priority:                 1.627988497201e-05
# Minimum COM separations:      20.879
# Separation priority:          2.344916010488e-05
# Minimum monomer separations:  18.488
# Cutoff priority:              6.711759546536e-07
# Nuclear repulsion energy:     360.9547920545293

memory 7 GB

molecule Dimer_0_401 {
  N           -4.29309621      -3.06837431       5.30516231
  N           -2.15847371      -2.92627296       1.72037448
  H           -0.02545587      -6.35903575       2.22046452
  H           -2.68566968      -6.53260241       6.61445954
  H           -4.74388423      -0.00609006       2.75615968
  H           -1.41045540      -2.24723147       0.00000000
  C           -1.43737991      -5.07504848       2.94065891
  C           -2.76900782      -5.14609916       5.13522880
  C           -3.85955036      -1.77728198       3.21093411
--
  N           34.20956213      -1.10331554      13.39723417
  N           36.34418463      -1.24541690       9.81244634
  H           38.47720247       2.18734590      10.31253638
  H           35.81698866       2.36091255      14.70653140
  H           33.75877412      -4.16559979      10.84823154
  H           37.09220294      -1.92445838       8.09207186
  C           37.06527843       0.90335863      11.03273078
  C           35.73365052       0.97440931      13.22730066
  C           34.64310798      -2.39440787      11.30300598
units = au
no_com
no_reorient
}

set {
  e_convergence 10
  d_convergence 10
  scf_type df
  mp2_type df
  cc_type df
  freeze_core true
}

energy('sapt0/aug-cc-pvdz')

--------------------------------------------------------------------------

  //              Dimer HF             //
    Molecular point group: c1
  Charge       = 0
  Multiplicity = 1
  Basis Set: AUG-CC-PVDZ
    Blend: AUG-CC-PVDZ
  Basis Set: (AUG-CC-PVDZ AUX)
    Blend: AUG-CC-PVDZ-JKFIT
  @DF-RHF Final Energy:  -449.68736394650392
    Total Energy =                       -449.6873639465038650
  //            Monomer A HF           //
    Molecular point group: c1
  Multiplicity = 1
  Basis Set: AUG-CC-PVDZ
    Blend: AUG-CC-PVDZ
  Basis Set: (AUG-CC-PVDZ AUX)
    Blend: AUG-CC-PVDZ-JKFIT
  @DF-RHF Final Energy:  -224.84369627830645
    Total Energy =                       -224.8436962783064530
  //            Monomer B HF           //
    Molecular point group: c1

    Geometry (in Bohr), charge = 0, multiplicity = 1:

       Center              X                  Y                   Z               Mass
    ------------   -----------------  -----------------  -----------------  -----------------
      Gh(N)          -4.293096210000    -3.068374310000     5.305162310000    14.003074004430
      Gh(N)          -2.158473710000    -2.926272960000     1.720374480000    14.003074004430
      Gh(H)          -0.025455870000    -6.359035750000     2.220464520000     1.007825032230
      Gh(H)          -2.685669680000    -6.532602410000     6.614459540000     1.007825032230
      Gh(H)          -4.743884230000    -0.006090060000     2.756159680000     1.007825032230
      Gh(H)          -1.410455400000    -2.247231470000     0.000000000000     1.007825032230
      Gh(C)          -1.437379910000    -5.075048480000     2.940658910000    12.000000000000
      Gh(C)          -2.769007820000    -5.146099160000     5.135228800000    12.000000000000
      Gh(C)          -3.859550360000    -1.777281980000     3.210934110000    12.000000000000
         N           34.209562130000    -1.103315540000    13.397234170000    14.003074004430
         N           36.344184630000    -1.245416900000     9.812446340000    14.003074004430
         H           38.477202470000     2.187345900000    10.312536380000     1.007825032230
         H           35.816988660000     2.360912550000    14.706531400000     1.007825032230
         H           33.758774120000    -4.165599790000    10.848231540000     1.007825032230
         H           37.092202940000    -1.924458380000     8.092071860000     1.007825032230
         C           37.065278430000     0.903358630000    11.032730780000    12.000000000000
         C           35.733650520000     0.974409310000    13.227300660000    12.000000000000
         C           34.643107980000    -2.394407870000    11.303005980000    12.000000000000

  Charge       = 0
  Multiplicity = 1
  Basis Set: AUG-CC-PVDZ
    Blend: AUG-CC-PVDZ
  Basis Set: (AUG-CC-PVDZ AUX)
    Blend: AUG-CC-PVDZ-JKFIT

    Orbital Energies [Eh]
    ---------------------

    Doubly Occupied:

       1A    -15.637071     2A    -15.551216     3A    -11.300916
       4A    -11.263160     5A    -11.245653     6A     -1.352867
       7A     -1.169098     8A     -1.012098     9A     -0.824390
      10A     -0.803731    11A     -0.760666    12A     -0.610096
      13A     -0.603958    14A     -0.601922    15A     -0.570942
      16A     -0.435483    17A     -0.400464    18A     -0.320685

  @DF-RHF Final Energy:  -224.84369627828534

   => Energetics <=

    Nuclear Repulsion Energy =            164.0866960384043409
    One-Electron Energy =                -628.9319563897199714
    Two-Electron Energy =                 240.0015640730302948
    Total Energy =                       -224.8436962782853357

  Dipole Moment: [D]
     X:     2.0431      Y:    -0.4150      Z:    -3.3867     Total:     3.9769

    SAPT Results
  --------------------------------------------------------------------------------------------------------
    Electrostatics                  0.02863976 [mEh]       0.01797172 [kcal/mol]       0.07519368 [kJ/mol]
      Elst10,r                      0.02863976 [mEh]       0.01797172 [kcal/mol]       0.07519368 [kJ/mol]

    Exchange                        0.00000000 [mEh]       0.00000000 [kcal/mol]       0.00000000 [kJ/mol]
      Exch10                        0.00000000 [mEh]       0.00000000 [kcal/mol]       0.00000000 [kJ/mol]
      Exch10(S^2)                   0.00000000 [mEh]       0.00000000 [kcal/mol]       0.00000000 [kJ/mol]

    Induction                      -0.00002967 [mEh]      -0.00001862 [kcal/mol]      -0.00007790 [kJ/mol]
      Ind20,r                      -0.00003652 [mEh]      -0.00002291 [kcal/mol]      -0.00009587 [kJ/mol]
      Exch-Ind20,r                  0.00000000 [mEh]       0.00000000 [kcal/mol]       0.00000000 [kJ/mol]
      delta HF,r (2)                0.00000684 [mEh]       0.00000429 [kcal/mol]       0.00001797 [kJ/mol]

    Dispersion                     -0.00029942 [mEh]      -0.00018789 [kcal/mol]      -0.00078612 [kJ/mol]
      Disp20                       -0.00029942 [mEh]      -0.00018789 [kcal/mol]      -0.00078612 [kJ/mol]
      Exch-Disp20                   0.00000000 [mEh]       0.00000000 [kcal/mol]       0.00000000 [kJ/mol]
      Disp20 (SS)                  -0.00014971 [mEh]      -0.00009394 [kcal/mol]      -0.00039306 [kJ/mol]
      Disp20 (OS)                  -0.00014971 [mEh]      -0.00009394 [kcal/mol]      -0.00039306 [kJ/mol]
      Exch-Disp20 (SS)              0.00000000 [mEh]       0.00000000 [kcal/mol]       0.00000000 [kJ/mol]
      Exch-Disp20 (OS)              0.00000000 [mEh]       0.00000000 [kcal/mol]       0.00000000 [kJ/mol]

  Total HF                          0.02861009 [mEh]       0.01795310 [kcal/mol]       0.07511578 [kJ/mol]
  Total SAPT0                       0.02831067 [mEh]       0.01776521 [kcal/mol]       0.07432965 [kJ/mol]

  Special recipe for scaled SAPT0 (see Manual):
    Electrostatics sSAPT0           0.02863976 [mEh]       0.01797172 [kcal/mol]       0.07519368 [kJ/mol]
    Exchange sSAPT0                 0.00000000 [mEh]       0.00000000 [kcal/mol]       0.00000000 [kJ/mol]
    Induction sSAPT0               -0.00002967 [mEh]      -0.00001862 [kcal/mol]      -0.00007790 [kJ/mol]
    Dispersion sSAPT0              -0.00029942 [mEh]      -0.00018789 [kcal/mol]      -0.00078612 [kJ/mol]
  Total sSAPT0                      0.02831067 [mEh]       0.01776521 [kcal/mol]       0.07432965 [kJ/mol]
  --------------------------------------------------------------------------------------------------------

*** Psi4 exiting successfully. Buy a developer a beer!
