                               Psi4 1.4rc3

  ==> Input File <==

--------------------------------------------------------------------------
# PSI4 file produced by CrystaLattE

# Generated from:               imidazole.xyz
# Psithon input for N-mer:      2mer-0+307
# Number of atoms per monomer:  [9, 9]
# Number of replicas:           1
# COM priority:                 1.586439304502e-05
# Minimum COM separations:      21.060
# Separation priority:          2.962861210293e-05
# Minimum monomer separations:  17.101
# Cutoff priority:              9.168150720994e-07
# Nuclear repulsion energy:     360.8405902964517

memory 7 GB

molecule Dimer_0_307 {
  N           -4.29309621      -3.06837431       5.30516231
  N           -2.15847371      -2.92627296       1.72037448
  H           -0.02545587      -6.35903575       2.22046452
  H           -2.68566968      -6.53260241       6.61445954
  H           -4.74388423      -0.00609006       2.75615968
  H           -1.41045540      -2.24723147       0.00000000
  C           -1.43737991      -5.07504848       2.94065891
  C           -2.76900782      -5.14609916       5.13522880
  C           -3.85955036      -1.77728198       3.21093411
--
  N           -1.12933827       3.97173294     -37.06168912
  N           -3.26396077       3.82963158     -33.47690129
  H           -5.39697861       7.26239438     -33.97699133
  H           -2.73676480       7.43596104     -38.37098635
  H           -0.67855025       0.90944869     -34.51268649
  H           -4.01197907       3.15059010     -31.75652681
  C           -3.98505457       5.97840711     -34.69718572
  C           -2.65342666       6.04945779     -36.89175561
  C           -1.56288412       2.68064061     -34.96746092
units = au
no_com
no_reorient
}

set {
  e_convergence 10
  d_convergence 10
  scf_type df
  mp2_type df
  cc_type df
  freeze_core true
}

energy('sapt0/aug-cc-pvdz')

--------------------------------------------------------------------------

  //              Dimer HF             //
    Molecular point group: c1
  Charge       = 0
  Multiplicity = 1
  Basis Set: AUG-CC-PVDZ
    Blend: AUG-CC-PVDZ
  Basis Set: (AUG-CC-PVDZ AUX)
    Blend: AUG-CC-PVDZ-JKFIT
  @DF-RHF Final Energy:  -449.68733721566571
    Total Energy =                       -449.6873372156657069
  //            Monomer A HF           //
    Molecular point group: c1
  Multiplicity = 1
  Basis Set: AUG-CC-PVDZ
    Blend: AUG-CC-PVDZ
  Basis Set: (AUG-CC-PVDZ AUX)
    Blend: AUG-CC-PVDZ-JKFIT
  @DF-RHF Final Energy:  -224.84369627821005
    Total Energy =                       -224.8436962782100466
  //            Monomer B HF           //
    Molecular point group: c1

    Geometry (in Bohr), charge = 0, multiplicity = 1:

       Center              X                  Y                   Z               Mass
    ------------   -----------------  -----------------  -----------------  -----------------
      Gh(N)          -4.293096210000    -3.068374310000     5.305162310000    14.003074004430
      Gh(N)          -2.158473710000    -2.926272960000     1.720374480000    14.003074004430
      Gh(H)          -0.025455870000    -6.359035750000     2.220464520000     1.007825032230
      Gh(H)          -2.685669680000    -6.532602410000     6.614459540000     1.007825032230
      Gh(H)          -4.743884230000    -0.006090060000     2.756159680000     1.007825032230
      Gh(H)          -1.410455400000    -2.247231470000     0.000000000000     1.007825032230
      Gh(C)          -1.437379910000    -5.075048480000     2.940658910000    12.000000000000
      Gh(C)          -2.769007820000    -5.146099160000     5.135228800000    12.000000000000
      Gh(C)          -3.859550360000    -1.777281980000     3.210934110000    12.000000000000
         N           -1.129338270000     3.971732940000   -37.061689120000    14.003074004430
         N           -3.263960770000     3.829631580000   -33.476901290000    14.003074004430
         H           -5.396978610000     7.262394380000   -33.976991330000     1.007825032230
         H           -2.736764800000     7.435961040000   -38.370986350000     1.007825032230
         H           -0.678550250000     0.909448690000   -34.512686490000     1.007825032230
         H           -4.011979070000     3.150590100000   -31.756526810000     1.007825032230
         C           -3.985054570000     5.978407110000   -34.697185720000    12.000000000000
         C           -2.653426660000     6.049457790000   -36.891755610000    12.000000000000
         C           -1.562884120000     2.680640610000   -34.967460920000    12.000000000000

  Charge       = 0
  Multiplicity = 1
  Basis Set: AUG-CC-PVDZ
    Blend: AUG-CC-PVDZ
  Basis Set: (AUG-CC-PVDZ AUX)
    Blend: AUG-CC-PVDZ-JKFIT

    Orbital Energies [Eh]
    ---------------------

    Doubly Occupied:

       1A    -15.637071     2A    -15.551216     3A    -11.300916
       4A    -11.263160     5A    -11.245653     6A     -1.352867
       7A     -1.169098     8A     -1.012098     9A     -0.824390
      10A     -0.803731    11A     -0.760666    12A     -0.610096
      13A     -0.603958    14A     -0.601922    15A     -0.570942
      16A     -0.435483    17A     -0.400464    18A     -0.320685

  @DF-RHF Final Energy:  -224.84369627787223

   => Energetics <=

    Nuclear Repulsion Energy =            164.0866959712148798
    One-Electron Energy =                -628.9319562510181640
    Two-Electron Energy =                 240.0015640019310297
    Total Energy =                       -224.8436962778722261

  Dipole Moment: [D]
     X:    -2.0431      Y:    -0.4150      Z:     3.3867     Total:     3.9769

    SAPT Results
  --------------------------------------------------------------------------------------------------------
    Electrostatics                  0.05544660 [mEh]       0.03479327 [kcal/mol]       0.14557503 [kJ/mol]
      Elst10,r                      0.05544660 [mEh]       0.03479327 [kcal/mol]       0.14557503 [kJ/mol]

    Exchange                        0.00000000 [mEh]       0.00000000 [kcal/mol]       0.00000000 [kJ/mol]
      Exch10                        0.00000000 [mEh]       0.00000000 [kcal/mol]       0.00000000 [kJ/mol]
      Exch10(S^2)                   0.00000000 [mEh]       0.00000000 [kcal/mol]       0.00000000 [kJ/mol]

    Induction                      -0.00010618 [mEh]      -0.00006663 [kcal/mol]      -0.00027879 [kJ/mol]
      Ind20,r                      -0.00010887 [mEh]      -0.00006832 [kcal/mol]      -0.00028585 [kJ/mol]
      Exch-Ind20,r                  0.00000000 [mEh]       0.00000000 [kcal/mol]       0.00000000 [kJ/mol]
      delta HF,r (2)                0.00000269 [mEh]       0.00000169 [kcal/mol]       0.00000706 [kJ/mol]

    Dispersion                     -0.00034435 [mEh]      -0.00021608 [kcal/mol]      -0.00090408 [kJ/mol]
      Disp20                       -0.00034435 [mEh]      -0.00021608 [kcal/mol]      -0.00090408 [kJ/mol]
      Exch-Disp20                   0.00000000 [mEh]       0.00000000 [kcal/mol]       0.00000000 [kJ/mol]
      Disp20 (SS)                  -0.00017217 [mEh]      -0.00010804 [kcal/mol]      -0.00045204 [kJ/mol]
      Disp20 (OS)                  -0.00017217 [mEh]      -0.00010804 [kcal/mol]      -0.00045204 [kJ/mol]
      Exch-Disp20 (SS)              0.00000000 [mEh]       0.00000000 [kcal/mol]       0.00000000 [kJ/mol]
      Exch-Disp20 (OS)              0.00000000 [mEh]       0.00000000 [kcal/mol]       0.00000000 [kJ/mol]

  Total HF                          0.05534042 [mEh]       0.03472664 [kcal/mol]       0.14529624 [kJ/mol]
  Total SAPT0                       0.05499607 [mEh]       0.03451056 [kcal/mol]       0.14439216 [kJ/mol]

  Special recipe for scaled SAPT0 (see Manual):
    Electrostatics sSAPT0           0.05544660 [mEh]       0.03479327 [kcal/mol]       0.14557503 [kJ/mol]
    Exchange sSAPT0                 0.00000000 [mEh]       0.00000000 [kcal/mol]       0.00000000 [kJ/mol]
    Induction sSAPT0               -0.00010618 [mEh]      -0.00006663 [kcal/mol]      -0.00027879 [kJ/mol]
    Dispersion sSAPT0              -0.00034435 [mEh]      -0.00021608 [kcal/mol]      -0.00090408 [kJ/mol]
  Total sSAPT0                      0.05499607 [mEh]       0.03451056 [kcal/mol]       0.14439216 [kJ/mol]
  --------------------------------------------------------------------------------------------------------

*** Psi4 exiting successfully. Buy a developer a beer!
