                               Psi4 1.4rc3

  ==> Input File <==

--------------------------------------------------------------------------
# PSI4 file produced by CrystaLattE

# Generated from:               imidazole.xyz
# Psithon input for N-mer:      2mer-0+153
# Number of atoms per monomer:  [9, 9]
# Number of replicas:           1
# COM priority:                 8.865206073799e-05
# Minimum COM separations:      11.868
# Separation priority:          9.305330386641e-05
# Minimum monomer separations:  11.678
# Cutoff priority:              4.216729379894e-06
# Nuclear repulsion energy:     385.25805301047876

memory 7 GB

molecule Dimer_0_153 {
  N           -4.29309621      -3.06837431       5.30516231
  N           -2.15847371      -2.92627296       1.72037448
  H           -0.02545587      -6.35903575       2.22046452
  H           -2.68566968      -6.53260241       6.61445954
  H           -4.74388423      -0.00609006       2.75615968
  H           -1.41045540      -2.24723147       0.00000000
  C           -1.43737991      -5.07504848       2.94065891
  C           -2.76900782      -5.14609916       5.13522880
  C           -3.85955036      -1.77728198       3.21093411
--
  N          -19.05808204     -16.32846099      -4.69340168
  N          -21.19270454     -16.47056235      -1.10861384
  H          -23.32572239     -13.03779955      -1.60870389
  H          -20.66550857     -12.86423289      -6.00269891
  H          -18.60729403     -19.39074524      -2.14439904
  H          -21.94072285     -17.14960383       0.61176063
  C          -21.91379834     -14.32178682      -2.32889828
  C          -20.58217043     -14.25073614      -4.52346817
  C          -19.49162790     -17.61955332      -2.59917348
units = au
no_com
no_reorient
}

set {
  e_convergence 10
  d_convergence 10
  scf_type df
  mp2_type df
  cc_type df
  freeze_core true
}

energy('sapt0/aug-cc-pvdz')

--------------------------------------------------------------------------

  //              Dimer HF             //
    Molecular point group: c1
  Charge       = 0
  Multiplicity = 1
  Basis Set: AUG-CC-PVDZ
    Blend: AUG-CC-PVDZ
  Basis Set: (AUG-CC-PVDZ AUX)
    Blend: AUG-CC-PVDZ-JKFIT
  @DF-RHF Final Energy:  -449.68749195056887
    Total Energy =                       -449.6874919505688695
  //            Monomer A HF           //
    Molecular point group: c1
  Multiplicity = 1
  Basis Set: AUG-CC-PVDZ
    Blend: AUG-CC-PVDZ
  Basis Set: (AUG-CC-PVDZ AUX)
    Blend: AUG-CC-PVDZ-JKFIT
  @DF-RHF Final Energy:  -224.84369632348330
    Total Energy =                       -224.8436963234833001
  //            Monomer B HF           //
    Molecular point group: c1

    Geometry (in Bohr), charge = 0, multiplicity = 1:

       Center              X                  Y                   Z               Mass
    ------------   -----------------  -----------------  -----------------  -----------------
      Gh(N)          -4.293096210000    -3.068374310000     5.305162310000    14.003074004430
      Gh(N)          -2.158473710000    -2.926272960000     1.720374480000    14.003074004430
      Gh(H)          -0.025455870000    -6.359035750000     2.220464520000     1.007825032230
      Gh(H)          -2.685669680000    -6.532602410000     6.614459540000     1.007825032230
      Gh(H)          -4.743884230000    -0.006090060000     2.756159680000     1.007825032230
      Gh(H)          -1.410455400000    -2.247231470000     0.000000000000     1.007825032230
      Gh(C)          -1.437379910000    -5.075048480000     2.940658910000    12.000000000000
      Gh(C)          -2.769007820000    -5.146099160000     5.135228800000    12.000000000000
      Gh(C)          -3.859550360000    -1.777281980000     3.210934110000    12.000000000000
         N          -19.058082040000   -16.328460990000    -4.693401680000    14.003074004430
         N          -21.192704540000   -16.470562350000    -1.108613840000    14.003074004430
         H          -23.325722390000   -13.037799550000    -1.608703890000     1.007825032230
         H          -20.665508570000   -12.864232890000    -6.002698910000     1.007825032230
         H          -18.607294030000   -19.390745240000    -2.144399040000     1.007825032230
         H          -21.940722850000   -17.149603830000     0.611760630000     1.007825032230
         C          -21.913798340000   -14.321786820000    -2.328898280000    12.000000000000
         C          -20.582170430000   -14.250736140000    -4.523468170000    12.000000000000
         C          -19.491627900000   -17.619553320000    -2.599173480000    12.000000000000

  Charge       = 0
  Multiplicity = 1
  Basis Set: AUG-CC-PVDZ
    Blend: AUG-CC-PVDZ
  Basis Set: (AUG-CC-PVDZ AUX)
    Blend: AUG-CC-PVDZ-JKFIT

    Orbital Energies [Eh]
    ---------------------

    Doubly Occupied:

       1A    -15.637071     2A    -15.551216     3A    -11.300916
       4A    -11.263160     5A    -11.245653     6A     -1.352867
       7A     -1.169098     8A     -1.012098     9A     -0.824390
      10A     -0.803731    11A     -0.760666    12A     -0.610096
      13A     -0.603958    14A     -0.601922    15A     -0.570942
      16A     -0.435483    17A     -0.400464    18A     -0.320685

  @DF-RHF Final Energy:  -224.84369632462094

   => Energetics <=

    Nuclear Repulsion Energy =            164.0866958967185383
    One-Electron Energy =                -628.9319565676546517
    Two-Electron Energy =                 240.0015643463151775
    Total Energy =                       -224.8436963246209359

  Dipole Moment: [D]
     X:    -2.0431      Y:    -0.4150      Z:     3.3867     Total:     3.9769

    SAPT Results
  --------------------------------------------------------------------------------------------------------
    Electrostatics                 -0.09829723 [mEh]      -0.06168244 [kcal/mol]      -0.25807934 [kJ/mol]
      Elst10,r                     -0.09829723 [mEh]      -0.06168244 [kcal/mol]      -0.25807934 [kJ/mol]

    Exchange                        0.00000003 [mEh]       0.00000002 [kcal/mol]       0.00000007 [kJ/mol]
      Exch10                        0.00000003 [mEh]       0.00000002 [kcal/mol]       0.00000007 [kJ/mol]
      Exch10(S^2)                   0.00000003 [mEh]       0.00000002 [kcal/mol]       0.00000007 [kJ/mol]

    Induction                      -0.00100526 [mEh]      -0.00063081 [kcal/mol]      -0.00263931 [kJ/mol]
      Ind20,r                      -0.00101842 [mEh]      -0.00063907 [kcal/mol]      -0.00267387 [kJ/mol]
      Exch-Ind20,r                  0.00000008 [mEh]       0.00000005 [kcal/mol]       0.00000020 [kJ/mol]
      delta HF,r (2)                0.00001308 [mEh]       0.00000821 [kcal/mol]       0.00003435 [kJ/mol]

    Dispersion                     -0.00789449 [mEh]      -0.00495386 [kcal/mol]      -0.02072697 [kJ/mol]
      Disp20                       -0.00789449 [mEh]      -0.00495387 [kcal/mol]      -0.02072699 [kJ/mol]
      Exch-Disp20                   0.00000001 [mEh]       0.00000000 [kcal/mol]       0.00000002 [kJ/mol]
      Disp20 (SS)                  -0.00394725 [mEh]      -0.00247693 [kcal/mol]      -0.01036350 [kJ/mol]
      Disp20 (OS)                  -0.00394725 [mEh]      -0.00247693 [kcal/mol]      -0.01036350 [kJ/mol]
      Exch-Disp20 (SS)              0.00000001 [mEh]       0.00000000 [kcal/mol]       0.00000002 [kJ/mol]
      Exch-Disp20 (OS)              0.00000000 [mEh]       0.00000000 [kcal/mol]       0.00000000 [kJ/mol]

  Total HF                         -0.09930246 [mEh]      -0.06231324 [kcal/mol]      -0.26071858 [kJ/mol]
  Total SAPT0                      -0.10719695 [mEh]      -0.06726710 [kcal/mol]      -0.28144556 [kJ/mol]

  Special recipe for scaled SAPT0 (see Manual):
    Electrostatics sSAPT0          -0.09829723 [mEh]      -0.06168244 [kcal/mol]      -0.25807934 [kJ/mol]
    Exchange sSAPT0                 0.00000003 [mEh]       0.00000002 [kcal/mol]       0.00000007 [kJ/mol]
    Induction sSAPT0               -0.00100526 [mEh]      -0.00063081 [kcal/mol]      -0.00263931 [kJ/mol]
    Dispersion sSAPT0              -0.00789449 [mEh]      -0.00495386 [kcal/mol]      -0.02072697 [kJ/mol]
  Total sSAPT0                     -0.10719695 [mEh]      -0.06726710 [kcal/mol]      -0.28144556 [kJ/mol]
  --------------------------------------------------------------------------------------------------------

*** Psi4 exiting successfully. Buy a developer a beer!
