                               Psi4 1.4rc3

  ==> Input File <==

--------------------------------------------------------------------------
# PSI4 file produced by CrystaLattE

# Generated from:               imidazole.xyz
# Psithon input for N-mer:      2mer-0+141
# Number of atoms per monomer:  [9, 9]
# Number of replicas:           2
# COM priority:                 3.541813283629e-05
# Minimum COM separations:      16.114
# Separation priority:          6.951860076933e-05
# Minimum monomer separations:  12.870
# Cutoff priority:              2.858476962293e-06
# Nuclear repulsion energy:     370.77079223787354

memory 7 GB

molecule Dimer_0_141 {
  N           -4.29309621      -3.06837431       5.30516231
  N           -2.15847371      -2.92627296       1.72037448
  H           -0.02545587      -6.35903575       2.22046452
  H           -2.68566968      -6.53260241       6.61445954
  H           -4.74388423      -0.00609006       2.75615968
  H           -1.41045540      -2.24723147       0.00000000
  C           -1.43737991      -5.07504848       2.94065891
  C           -2.76900782      -5.14609916       5.13522880
  C           -3.85955036      -1.77728198       3.21093411
--
  N           -4.29309621      27.38191658       5.30516231
  N           -2.15847371      27.52401794       1.72037448
  H           -0.02545587      24.09125515       2.22046452
  H           -2.68566968      23.91768849       6.61445954
  H           -4.74388423      30.44420084       2.75615968
  H           -1.41045540      28.20305943       0.00000000
  C           -1.43737991      25.37524241       2.94065891
  C           -2.76900782      25.30419173       5.13522880
  C           -3.85955036      28.67300892       3.21093411
units = au
no_com
no_reorient
}

set {
  e_convergence 10
  d_convergence 10
  scf_type df
  mp2_type df
  cc_type df
  freeze_core true
}

energy('sapt0/aug-cc-pvdz')

--------------------------------------------------------------------------

  //              Dimer HF             //
    Molecular point group: c1
  Charge       = 0
  Multiplicity = 1
  Basis Set: AUG-CC-PVDZ
    Blend: AUG-CC-PVDZ
  Basis Set: (AUG-CC-PVDZ AUX)
    Blend: AUG-CC-PVDZ-JKFIT
  @DF-RHF Final Energy:  -449.68731741665249
    Total Energy =                       -449.6873174166524905
  //            Monomer A HF           //
    Molecular point group: c1
  Multiplicity = 1
  Basis Set: AUG-CC-PVDZ
    Blend: AUG-CC-PVDZ
  Basis Set: (AUG-CC-PVDZ AUX)
    Blend: AUG-CC-PVDZ-JKFIT
  @DF-RHF Final Energy:  -224.84369628002568
    Total Energy =                       -224.8436962800256822
  //            Monomer B HF           //
    Molecular point group: c1

    Geometry (in Bohr), charge = 0, multiplicity = 1:

       Center              X                  Y                   Z               Mass
    ------------   -----------------  -----------------  -----------------  -----------------
      Gh(N)          -4.293096210000    -3.068374310000     5.305162310000    14.003074004430
      Gh(N)          -2.158473710000    -2.926272960000     1.720374480000    14.003074004430
      Gh(H)          -0.025455870000    -6.359035750000     2.220464520000     1.007825032230
      Gh(H)          -2.685669680000    -6.532602410000     6.614459540000     1.007825032230
      Gh(H)          -4.743884230000    -0.006090060000     2.756159680000     1.007825032230
      Gh(H)          -1.410455400000    -2.247231470000     0.000000000000     1.007825032230
      Gh(C)          -1.437379910000    -5.075048480000     2.940658910000    12.000000000000
      Gh(C)          -2.769007820000    -5.146099160000     5.135228800000    12.000000000000
      Gh(C)          -3.859550360000    -1.777281980000     3.210934110000    12.000000000000
         N           -4.293096210000    27.381916580000     5.305162310000    14.003074004430
         N           -2.158473710000    27.524017940000     1.720374480000    14.003074004430
         H           -0.025455870000    24.091255150000     2.220464520000     1.007825032230
         H           -2.685669680000    23.917688490000     6.614459540000     1.007825032230
         H           -4.743884230000    30.444200840000     2.756159680000     1.007825032230
         H           -1.410455400000    28.203059430000     0.000000000000     1.007825032230
         C           -1.437379910000    25.375242410000     2.940658910000    12.000000000000
         C           -2.769007820000    25.304191730000     5.135228800000    12.000000000000
         C           -3.859550360000    28.673008920000     3.210934110000    12.000000000000

  Charge       = 0
  Multiplicity = 1
  Basis Set: AUG-CC-PVDZ
    Blend: AUG-CC-PVDZ
  Basis Set: (AUG-CC-PVDZ AUX)
    Blend: AUG-CC-PVDZ-JKFIT

    Orbital Energies [Eh]
    ---------------------

    Doubly Occupied:

       1A    -15.637071     2A    -15.551216     3A    -11.300916
       4A    -11.263160     5A    -11.245653     6A     -1.352867
       7A     -1.169098     8A     -1.012098     9A     -0.824390
      10A     -0.803731    11A     -0.760666    12A     -0.610096
      13A     -0.603958    14A     -0.601922    15A     -0.570942
      16A     -0.435483    17A     -0.400464    18A     -0.320685

  @DF-RHF Final Energy:  -224.84369628118284

   => Energetics <=

    Nuclear Repulsion Energy =            164.0866958726849418
    One-Electron Energy =                -628.9319560839587666
    Two-Electron Energy =                 240.0015639300910095
    Total Energy =                       -224.8436962811828437

  Dipole Moment: [D]
     X:     2.0431      Y:     0.4150      Z:    -3.3867     Total:     3.9769

    SAPT Results
  --------------------------------------------------------------------------------------------------------
    Electrostatics                  0.07532291 [mEh]       0.04726584 [kcal/mol]       0.19776026 [kJ/mol]
      Elst10,r                      0.07532291 [mEh]       0.04726584 [kcal/mol]       0.19776026 [kJ/mol]

    Exchange                        0.00000000 [mEh]       0.00000000 [kcal/mol]       0.00000000 [kJ/mol]
      Exch10                        0.00000000 [mEh]       0.00000000 [kcal/mol]       0.00000000 [kJ/mol]
      Exch10(S^2)                   0.00000000 [mEh]       0.00000000 [kcal/mol]       0.00000000 [kJ/mol]

    Induction                      -0.00017835 [mEh]      -0.00011192 [kcal/mol]      -0.00046826 [kJ/mol]
      Ind20,r                      -0.00018389 [mEh]      -0.00011539 [kcal/mol]      -0.00048280 [kJ/mol]
      Exch-Ind20,r                  0.00000000 [mEh]       0.00000000 [kcal/mol]       0.00000000 [kJ/mol]
      delta HF,r (2)                0.00000554 [mEh]       0.00000348 [kcal/mol]       0.00001454 [kJ/mol]

    Dispersion                     -0.00170396 [mEh]      -0.00106925 [kcal/mol]      -0.00447374 [kJ/mol]
      Disp20                       -0.00170396 [mEh]      -0.00106925 [kcal/mol]      -0.00447374 [kJ/mol]
      Exch-Disp20                   0.00000000 [mEh]       0.00000000 [kcal/mol]       0.00000000 [kJ/mol]
      Disp20 (SS)                  -0.00085198 [mEh]      -0.00053462 [kcal/mol]      -0.00223687 [kJ/mol]
      Disp20 (OS)                  -0.00085198 [mEh]      -0.00053462 [kcal/mol]      -0.00223687 [kJ/mol]
      Exch-Disp20 (SS)              0.00000000 [mEh]       0.00000000 [kcal/mol]       0.00000000 [kJ/mol]
      Exch-Disp20 (OS)              0.00000000 [mEh]       0.00000000 [kcal/mol]       0.00000000 [kJ/mol]

  Total HF                          0.07514456 [mEh]       0.04715392 [kcal/mol]       0.19729200 [kJ/mol]
  Total SAPT0                       0.07344060 [mEh]       0.04608467 [kcal/mol]       0.19281827 [kJ/mol]

  Special recipe for scaled SAPT0 (see Manual):
    Electrostatics sSAPT0           0.07532291 [mEh]       0.04726584 [kcal/mol]       0.19776026 [kJ/mol]
    Exchange sSAPT0                 0.00000000 [mEh]       0.00000000 [kcal/mol]       0.00000000 [kJ/mol]
    Induction sSAPT0               -0.00017835 [mEh]      -0.00011192 [kcal/mol]      -0.00046826 [kJ/mol]
    Dispersion sSAPT0              -0.00170396 [mEh]      -0.00106925 [kcal/mol]      -0.00447374 [kJ/mol]
  Total sSAPT0                      0.07344060 [mEh]       0.04608467 [kcal/mol]       0.19281827 [kJ/mol]
  --------------------------------------------------------------------------------------------------------

*** Psi4 exiting successfully. Buy a developer a beer!
