                               Psi4 1.4rc3

  ==> Input File <==

--------------------------------------------------------------------------
# PSI4 file produced by CrystaLattE

# Generated from:               imidazole.xyz
# Psithon input for N-mer:      2mer-0+487
# Number of atoms per monomer:  [9, 9]
# Number of replicas:           2
# COM priority:                 1.600017227204e-05
# Minimum COM separations:      21.000
# Separation priority:          1.985588037748e-05
# Minimum monomer separations:  19.542
# Cutoff priority:              5.376737865635e-07
# Nuclear repulsion energy:     360.7613090248402

memory 7 GB

molecule Dimer_0_487 {
  N           -4.29309621      -3.06837431       5.30516231
  N           -2.15847371      -2.92627296       1.72037448
  H           -0.02545587      -6.35903575       2.22046452
  H           -2.68566968      -6.53260241       6.61445954
  H           -4.74388423      -0.00609006       2.75615968
  H           -1.41045540      -2.24723147       0.00000000
  C           -1.43737991      -5.07504848       2.94065891
  C           -2.76900782      -5.14609916       5.13522880
  C           -3.85955036      -1.77728198       3.21093411
--
  N            6.43472287      17.23181962      37.67344976
  N            8.56934537      17.37392098      34.08866192
  H           10.70236321      13.94115818      34.58875196
  H            8.04214940      13.76759152      38.98274698
  H            5.98393485      20.29410387      35.12444712
  H            9.31736368      18.05296246      32.36828744
  C            9.29043917      15.22514545      35.30894636
  C            7.95881126      15.15409477      37.50351625
  C            6.86826872      18.52291195      35.57922156
units = au
no_com
no_reorient
}

set {
  e_convergence 10
  d_convergence 10
  scf_type df
  mp2_type df
  cc_type df
  freeze_core true
}

energy('sapt0/aug-cc-pvdz')

--------------------------------------------------------------------------

  //              Dimer HF             //
    Molecular point group: c1
  Charge       = 0
  Multiplicity = 1
  Basis Set: AUG-CC-PVDZ
    Blend: AUG-CC-PVDZ
  Basis Set: (AUG-CC-PVDZ AUX)
    Blend: AUG-CC-PVDZ-JKFIT
  @DF-RHF Final Energy:  -449.68738103114697
    Total Energy =                       -449.6873810311469697
  //            Monomer A HF           //
    Molecular point group: c1
  Multiplicity = 1
  Basis Set: AUG-CC-PVDZ
    Blend: AUG-CC-PVDZ
  Basis Set: (AUG-CC-PVDZ AUX)
    Blend: AUG-CC-PVDZ-JKFIT
  @DF-RHF Final Energy:  -224.84369627846561
    Total Energy =                       -224.8436962784656146
  //            Monomer B HF           //
    Molecular point group: c1

    Geometry (in Bohr), charge = 0, multiplicity = 1:

       Center              X                  Y                   Z               Mass
    ------------   -----------------  -----------------  -----------------  -----------------
      Gh(N)          -4.293096210000    -3.068374310000     5.305162310000    14.003074004430
      Gh(N)          -2.158473710000    -2.926272960000     1.720374480000    14.003074004430
      Gh(H)          -0.025455870000    -6.359035750000     2.220464520000     1.007825032230
      Gh(H)          -2.685669680000    -6.532602410000     6.614459540000     1.007825032230
      Gh(H)          -4.743884230000    -0.006090060000     2.756159680000     1.007825032230
      Gh(H)          -1.410455400000    -2.247231470000     0.000000000000     1.007825032230
      Gh(C)          -1.437379910000    -5.075048480000     2.940658910000    12.000000000000
      Gh(C)          -2.769007820000    -5.146099160000     5.135228800000    12.000000000000
      Gh(C)          -3.859550360000    -1.777281980000     3.210934110000    12.000000000000
         N            6.434722870000    17.231819620000    37.673449760000    14.003074004430
         N            8.569345370000    17.373920980000    34.088661920000    14.003074004430
         H           10.702363210000    13.941158180000    34.588751960000     1.007825032230
         H            8.042149400000    13.767591520000    38.982746980000     1.007825032230
         H            5.983934850000    20.294103870000    35.124447120000     1.007825032230
         H            9.317363680000    18.052962460000    32.368287440000     1.007825032230
         C            9.290439170000    15.225145450000    35.308946360000    12.000000000000
         C            7.958811260000    15.154094770000    37.503516250000    12.000000000000
         C            6.868268720000    18.522911950000    35.579221560000    12.000000000000

  Charge       = 0
  Multiplicity = 1
  Basis Set: AUG-CC-PVDZ
    Blend: AUG-CC-PVDZ
  Basis Set: (AUG-CC-PVDZ AUX)
    Blend: AUG-CC-PVDZ-JKFIT

    Orbital Energies [Eh]
    ---------------------

    Doubly Occupied:

       1A    -15.637071     2A    -15.551216     3A    -11.300916
       4A    -11.263160     5A    -11.245653     6A     -1.352867
       7A     -1.169098     8A     -1.012098     9A     -0.824390
      10A     -0.803731    11A     -0.760666    12A     -0.610096
      13A     -0.603958    14A     -0.601922    15A     -0.570942
      16A     -0.435483    17A     -0.400464    18A     -0.320685

  @DF-RHF Final Energy:  -224.84369627836216

   => Energetics <=

    Nuclear Repulsion Energy =            164.0866958400801821
    One-Electron Energy =                -628.9319559953237331
    Two-Electron Energy =                 240.0015638768813631
    Total Energy =                       -224.8436962783621595

  Dipole Moment: [D]
     X:     2.0431      Y:     0.4150      Z:    -3.3867     Total:     3.9769

    SAPT Results
  --------------------------------------------------------------------------------------------------------
    Electrostatics                  0.01155605 [mEh]       0.00725153 [kcal/mol]       0.03034041 [kJ/mol]
      Elst10,r                      0.01155605 [mEh]       0.00725153 [kcal/mol]       0.03034041 [kJ/mol]

    Exchange                        0.00000000 [mEh]       0.00000000 [kcal/mol]       0.00000000 [kJ/mol]
      Exch10                        0.00000000 [mEh]       0.00000000 [kcal/mol]       0.00000000 [kJ/mol]
      Exch10(S^2)                   0.00000000 [mEh]       0.00000000 [kcal/mol]       0.00000000 [kJ/mol]

    Induction                      -0.00003037 [mEh]      -0.00001906 [kcal/mol]      -0.00007974 [kJ/mol]
      Ind20,r                      -0.00003861 [mEh]      -0.00002423 [kcal/mol]      -0.00010137 [kJ/mol]
      Exch-Ind20,r                  0.00000000 [mEh]       0.00000000 [kcal/mol]       0.00000000 [kJ/mol]
      delta HF,r (2)                0.00000824 [mEh]       0.00000517 [kcal/mol]       0.00002163 [kJ/mol]

    Dispersion                     -0.00028045 [mEh]      -0.00017599 [kcal/mol]      -0.00073632 [kJ/mol]
      Disp20                       -0.00028045 [mEh]      -0.00017599 [kcal/mol]      -0.00073632 [kJ/mol]
      Exch-Disp20                   0.00000000 [mEh]       0.00000000 [kcal/mol]       0.00000000 [kJ/mol]
      Disp20 (SS)                  -0.00014023 [mEh]      -0.00008799 [kcal/mol]      -0.00036816 [kJ/mol]
      Disp20 (OS)                  -0.00014023 [mEh]      -0.00008799 [kcal/mol]      -0.00036816 [kJ/mol]
      Exch-Disp20 (SS)              0.00000000 [mEh]       0.00000000 [kcal/mol]       0.00000000 [kJ/mol]
      Exch-Disp20 (OS)              0.00000000 [mEh]       0.00000000 [kcal/mol]       0.00000000 [kJ/mol]

  Total HF                          0.01152568 [mEh]       0.00723247 [kcal/mol]       0.03026067 [kJ/mol]
  Total SAPT0                       0.01124523 [mEh]       0.00705649 [kcal/mol]       0.02952435 [kJ/mol]

  Special recipe for scaled SAPT0 (see Manual):
    Electrostatics sSAPT0           0.01155605 [mEh]       0.00725153 [kcal/mol]       0.03034041 [kJ/mol]
    Exchange sSAPT0                 0.00000000 [mEh]       0.00000000 [kcal/mol]       0.00000000 [kJ/mol]
    Induction sSAPT0               -0.00003037 [mEh]      -0.00001906 [kcal/mol]      -0.00007974 [kJ/mol]
    Dispersion sSAPT0              -0.00028045 [mEh]      -0.00017599 [kcal/mol]      -0.00073632 [kJ/mol]
  Total sSAPT0                      0.01124523 [mEh]       0.00705649 [kcal/mol]       0.02952435 [kJ/mol]
  --------------------------------------------------------------------------------------------------------

*** Psi4 exiting successfully. Buy a developer a beer!
