                               Psi4 1.4rc3

  ==> Input File <==

--------------------------------------------------------------------------
# PSI4 file produced by CrystaLattE

# Generated from:               imidazole.xyz
# Psithon input for N-mer:      2mer-0+138
# Number of atoms per monomer:  [9, 9]
# Number of replicas:           2
# COM priority:                 4.249400881922e-05
# Minimum COM separations:      15.164
# Separation priority:          6.577877809663e-05
# Minimum monomer separations:  13.109
# Cutoff priority:              2.655304933536e-06
# Nuclear repulsion energy:     373.2874970665139

memory 7 GB

molecule Dimer_0_138 {
  N           -4.29309621      -3.06837431       5.30516231
  N           -2.15847371      -2.92627296       1.72037448
  H           -0.02545587      -6.35903575       2.22046452
  H           -2.68566968      -6.53260241       6.61445954
  H           -4.74388423      -0.00609006       2.75615968
  H           -1.41045540      -2.24723147       0.00000000
  C           -1.43737991      -5.07504848       2.94065891
  C           -2.76900782      -5.14609916       5.13522880
  C           -3.85955036      -1.77728198       3.21093411
--
  N           24.36346665      -3.06837431       5.30516231
  N           26.49808915      -2.92627296       1.72037448
  H           28.63110699      -6.35903575       2.22046452
  H           25.97089318      -6.53260241       6.61445954
  H           23.91267863      -0.00609006       2.75615968
  H           27.24610745      -2.24723147       0.00000000
  C           27.21918294      -5.07504848       2.94065891
  C           25.88755504      -5.14609916       5.13522880
  C           24.79701250      -1.77728198       3.21093411
units = au
no_com
no_reorient
}

set {
  e_convergence 10
  d_convergence 10
  scf_type df
  mp2_type df
  cc_type df
  freeze_core true
}

energy('sapt0/aug-cc-pvdz')

--------------------------------------------------------------------------

  //              Dimer HF             //
    Molecular point group: c1
  Charge       = 0
  Multiplicity = 1
  Basis Set: AUG-CC-PVDZ
    Blend: AUG-CC-PVDZ
  Basis Set: (AUG-CC-PVDZ AUX)
    Blend: AUG-CC-PVDZ-JKFIT
  @DF-RHF Final Energy:  -449.68736048571418
    Total Energy =                       -449.6873604857141800
  //            Monomer A HF           //
    Molecular point group: c1
  Multiplicity = 1
  Basis Set: AUG-CC-PVDZ
    Blend: AUG-CC-PVDZ
  Basis Set: (AUG-CC-PVDZ AUX)
    Blend: AUG-CC-PVDZ-JKFIT
  @DF-RHF Final Energy:  -224.84369628026676
    Total Energy =                       -224.8436962802667551
  //            Monomer B HF           //
    Molecular point group: c1

    Geometry (in Bohr), charge = 0, multiplicity = 1:

       Center              X                  Y                   Z               Mass
    ------------   -----------------  -----------------  -----------------  -----------------
      Gh(N)          -4.293096210000    -3.068374310000     5.305162310000    14.003074004430
      Gh(N)          -2.158473710000    -2.926272960000     1.720374480000    14.003074004430
      Gh(H)          -0.025455870000    -6.359035750000     2.220464520000     1.007825032230
      Gh(H)          -2.685669680000    -6.532602410000     6.614459540000     1.007825032230
      Gh(H)          -4.743884230000    -0.006090060000     2.756159680000     1.007825032230
      Gh(H)          -1.410455400000    -2.247231470000     0.000000000000     1.007825032230
      Gh(C)          -1.437379910000    -5.075048480000     2.940658910000    12.000000000000
      Gh(C)          -2.769007820000    -5.146099160000     5.135228800000    12.000000000000
      Gh(C)          -3.859550360000    -1.777281980000     3.210934110000    12.000000000000
         N           24.363466650000    -3.068374310000     5.305162310000    14.003074004430
         N           26.498089150000    -2.926272960000     1.720374480000    14.003074004430
         H           28.631106990000    -6.359035750000     2.220464520000     1.007825032230
         H           25.970893180000    -6.532602410000     6.614459540000     1.007825032230
         H           23.912678630000    -0.006090060000     2.756159680000     1.007825032230
         H           27.246107450000    -2.247231470000     0.000000000000     1.007825032230
         C           27.219182940000    -5.075048480000     2.940658910000    12.000000000000
         C           25.887555040000    -5.146099160000     5.135228800000    12.000000000000
         C           24.797012500000    -1.777281980000     3.210934110000    12.000000000000

  Charge       = 0
  Multiplicity = 1
  Basis Set: AUG-CC-PVDZ
    Blend: AUG-CC-PVDZ
  Basis Set: (AUG-CC-PVDZ AUX)
    Blend: AUG-CC-PVDZ-JKFIT

    Orbital Energies [Eh]
    ---------------------

    Doubly Occupied:

       1A    -15.637071     2A    -15.551216     3A    -11.300916
       4A    -11.263160     5A    -11.245653     6A     -1.352867
       7A     -1.169098     8A     -1.012098     9A     -0.824390
      10A     -0.803731    11A     -0.760666    12A     -0.610096
      13A     -0.603958    14A     -0.601922    15A     -0.570942
      16A     -0.435483    17A     -0.400464    18A     -0.320685

  @DF-RHF Final Energy:  -224.84369628152695

   => Energetics <=

    Nuclear Repulsion Energy =            164.0866960711006755
    One-Electron Energy =                -628.9319564665786402
    Two-Electron Energy =                 240.0015641139510194
    Total Energy =                       -224.8436962815269453

  Dipole Moment: [D]
     X:     2.0431      Y:     0.4150      Z:    -3.3867     Total:     3.9769

    SAPT Results
  --------------------------------------------------------------------------------------------------------
    Electrostatics                  0.03238997 [mEh]       0.02032501 [kcal/mol]       0.08503985 [kJ/mol]
      Elst10,r                      0.03238997 [mEh]       0.02032501 [kcal/mol]       0.08503985 [kJ/mol]

    Exchange                        0.00000000 [mEh]       0.00000000 [kcal/mol]       0.00000000 [kJ/mol]
      Exch10                        0.00000000 [mEh]       0.00000000 [kcal/mol]       0.00000000 [kJ/mol]
      Exch10(S^2)                   0.00000000 [mEh]       0.00000000 [kcal/mol]       0.00000000 [kJ/mol]

    Induction                      -0.00031389 [mEh]      -0.00019697 [kcal/mol]      -0.00082412 [kJ/mol]
      Ind20,r                      -0.00033781 [mEh]      -0.00021198 [kcal/mol]      -0.00088691 [kJ/mol]
      Exch-Ind20,r                  0.00000000 [mEh]       0.00000000 [kcal/mol]       0.00000000 [kJ/mol]
      delta HF,r (2)                0.00002392 [mEh]       0.00001501 [kcal/mol]       0.00006279 [kJ/mol]

    Dispersion                     -0.00214161 [mEh]      -0.00134388 [kcal/mol]      -0.00562279 [kJ/mol]
      Disp20                       -0.00214161 [mEh]      -0.00134388 [kcal/mol]      -0.00562279 [kJ/mol]
      Exch-Disp20                   0.00000000 [mEh]       0.00000000 [kcal/mol]       0.00000000 [kJ/mol]
      Disp20 (SS)                  -0.00107080 [mEh]      -0.00067194 [kcal/mol]      -0.00281139 [kJ/mol]
      Disp20 (OS)                  -0.00107080 [mEh]      -0.00067194 [kcal/mol]      -0.00281139 [kJ/mol]
      Exch-Disp20 (SS)              0.00000000 [mEh]       0.00000000 [kcal/mol]       0.00000000 [kJ/mol]
      Exch-Disp20 (OS)              0.00000000 [mEh]       0.00000000 [kcal/mol]       0.00000000 [kJ/mol]

  Total HF                          0.03207608 [mEh]       0.02012804 [kcal/mol]       0.08421574 [kJ/mol]
  Total SAPT0                       0.02993447 [mEh]       0.01878417 [kcal/mol]       0.07859295 [kJ/mol]

  Special recipe for scaled SAPT0 (see Manual):
    Electrostatics sSAPT0           0.03238997 [mEh]       0.02032501 [kcal/mol]       0.08503985 [kJ/mol]
    Exchange sSAPT0                 0.00000000 [mEh]       0.00000000 [kcal/mol]       0.00000000 [kJ/mol]
    Induction sSAPT0               -0.00031389 [mEh]      -0.00019697 [kcal/mol]      -0.00082412 [kJ/mol]
    Dispersion sSAPT0              -0.00214161 [mEh]      -0.00134388 [kcal/mol]      -0.00562279 [kJ/mol]
  Total sSAPT0                      0.02993447 [mEh]       0.01878417 [kcal/mol]       0.07859295 [kJ/mol]
  --------------------------------------------------------------------------------------------------------

*** Psi4 exiting successfully. Buy a developer a beer!
