                               Psi4 1.4rc3

  ==> Input File <==

--------------------------------------------------------------------------
# PSI4 file produced by CrystaLattE

# Generated from:               imidazole.xyz
# Psithon input for N-mer:      2mer-0+165
# Number of atoms per monomer:  [9, 9]
# Number of replicas:           2
# COM priority:                 3.559055802512e-05
# Minimum COM separations:      16.088
# Separation priority:          4.595169860471e-05
# Minimum monomer separations:  14.774
# Cutoff priority:              1.645894875107e-06
# Nuclear repulsion energy:     370.6310370746202

memory 7 GB

molecule Dimer_0_165 {
  N           -4.29309621      -3.06837431       5.30516231
  N           -2.15847371      -2.92627296       1.72037448
  H           -0.02545587      -6.35903575       2.22046452
  H           -2.68566968      -6.53260241       6.61445954
  H           -4.74388423      -0.00609006       2.75615968
  H           -1.41045540      -2.24723147       0.00000000
  C           -1.43737991      -5.07504848       2.94065891
  C           -2.76900782      -5.14609916       5.13522880
  C           -3.85955036      -1.77728198       3.21093411
--
  N           24.36346665       7.08172265       5.30516231
  N           26.49808915       7.22382401       1.72037448
  H           28.63110699       3.79106122       2.22046452
  H           25.97089318       3.61749456       6.61445954
  H           23.91267863      10.14400691       2.75615968
  H           27.24610745       7.90286550       0.00000000
  C           27.21918294       5.07504848       2.94065891
  C           25.88755504       5.00399780       5.13522880
  C           24.79701250       8.37281499       3.21093411
units = au
no_com
no_reorient
}

set {
  e_convergence 10
  d_convergence 10
  scf_type df
  mp2_type df
  cc_type df
  freeze_core true
}

energy('sapt0/aug-cc-pvdz')

--------------------------------------------------------------------------

  //              Dimer HF             //
    Molecular point group: c1
  Charge       = 0
  Multiplicity = 1
  Basis Set: AUG-CC-PVDZ
    Blend: AUG-CC-PVDZ
  Basis Set: (AUG-CC-PVDZ AUX)
    Blend: AUG-CC-PVDZ-JKFIT
  @DF-RHF Final Energy:  -449.68736829306391
    Total Energy =                       -449.6873682930638552
  //            Monomer A HF           //
    Molecular point group: c1
  Multiplicity = 1
  Basis Set: AUG-CC-PVDZ
    Blend: AUG-CC-PVDZ
  Basis Set: (AUG-CC-PVDZ AUX)
    Blend: AUG-CC-PVDZ-JKFIT
  @DF-RHF Final Energy:  -224.84369627999837
    Total Energy =                       -224.8436962799983689
  //            Monomer B HF           //
    Molecular point group: c1

    Geometry (in Bohr), charge = 0, multiplicity = 1:

       Center              X                  Y                   Z               Mass
    ------------   -----------------  -----------------  -----------------  -----------------
      Gh(N)          -4.293096210000    -3.068374310000     5.305162310000    14.003074004430
      Gh(N)          -2.158473710000    -2.926272960000     1.720374480000    14.003074004430
      Gh(H)          -0.025455870000    -6.359035750000     2.220464520000     1.007825032230
      Gh(H)          -2.685669680000    -6.532602410000     6.614459540000     1.007825032230
      Gh(H)          -4.743884230000    -0.006090060000     2.756159680000     1.007825032230
      Gh(H)          -1.410455400000    -2.247231470000     0.000000000000     1.007825032230
      Gh(C)          -1.437379910000    -5.075048480000     2.940658910000    12.000000000000
      Gh(C)          -2.769007820000    -5.146099160000     5.135228800000    12.000000000000
      Gh(C)          -3.859550360000    -1.777281980000     3.210934110000    12.000000000000
         N           24.363466650000     7.081722650000     5.305162310000    14.003074004430
         N           26.498089150000     7.223824010000     1.720374480000    14.003074004430
         H           28.631106990000     3.791061220000     2.220464520000     1.007825032230
         H           25.970893180000     3.617494560000     6.614459540000     1.007825032230
         H           23.912678630000    10.144006910000     2.756159680000     1.007825032230
         H           27.246107450000     7.902865500000     0.000000000000     1.007825032230
         C           27.219182940000     5.075048480000     2.940658910000    12.000000000000
         C           25.887555040000     5.003997800000     5.135228800000    12.000000000000
         C           24.797012500000     8.372814990000     3.210934110000    12.000000000000

  Charge       = 0
  Multiplicity = 1
  Basis Set: AUG-CC-PVDZ
    Blend: AUG-CC-PVDZ
  Basis Set: (AUG-CC-PVDZ AUX)
    Blend: AUG-CC-PVDZ-JKFIT

    Orbital Energies [Eh]
    ---------------------

    Doubly Occupied:

       1A    -15.637071     2A    -15.551216     3A    -11.300916
       4A    -11.263160     5A    -11.245653     6A     -1.352867
       7A     -1.169098     8A     -1.012098     9A     -0.824390
      10A     -0.803731    11A     -0.760666    12A     -0.610096
      13A     -0.603958    14A     -0.601922    15A     -0.570942
      16A     -0.435483    17A     -0.400464    18A     -0.320685

  @DF-RHF Final Energy:  -224.84369628036930

   => Energetics <=

    Nuclear Repulsion Energy =            164.0866959496012782
    One-Electron Energy =                -628.9319562215974884
    Two-Electron Energy =                 240.0015639916269095
    Total Energy =                       -224.8436962803693007

  Dipole Moment: [D]
     X:     2.0431      Y:     0.4150      Z:    -3.3867     Total:     3.9769

    SAPT Results
  --------------------------------------------------------------------------------------------------------
    Electrostatics                  0.02445134 [mEh]       0.01534345 [kcal/mol]       0.06419699 [kJ/mol]
      Elst10,r                      0.02445134 [mEh]       0.01534345 [kcal/mol]       0.06419699 [kJ/mol]

    Exchange                        0.00000000 [mEh]       0.00000000 [kcal/mol]       0.00000000 [kJ/mol]
      Exch10                        0.00000000 [mEh]       0.00000000 [kcal/mol]       0.00000000 [kJ/mol]
      Exch10(S^2)                   0.00000000 [mEh]       0.00000000 [kcal/mol]       0.00000000 [kJ/mol]

    Induction                      -0.00018404 [mEh]      -0.00011549 [kcal/mol]      -0.00048320 [kJ/mol]
      Ind20,r                      -0.00019668 [mEh]      -0.00012342 [kcal/mol]      -0.00051639 [kJ/mol]
      Exch-Ind20,r                  0.00000000 [mEh]       0.00000000 [kcal/mol]       0.00000000 [kJ/mol]
      delta HF,r (2)                0.00001264 [mEh]       0.00000793 [kcal/mol]       0.00003319 [kJ/mol]

    Dispersion                     -0.00137701 [mEh]      -0.00086409 [kcal/mol]      -0.00361533 [kJ/mol]
      Disp20                       -0.00137701 [mEh]      -0.00086409 [kcal/mol]      -0.00361533 [kJ/mol]
      Exch-Disp20                   0.00000000 [mEh]       0.00000000 [kcal/mol]       0.00000000 [kJ/mol]
      Disp20 (SS)                  -0.00068850 [mEh]      -0.00043204 [kcal/mol]      -0.00180767 [kJ/mol]
      Disp20 (OS)                  -0.00068850 [mEh]      -0.00043204 [kcal/mol]      -0.00180767 [kJ/mol]
      Exch-Disp20 (SS)              0.00000000 [mEh]       0.00000000 [kcal/mol]       0.00000000 [kJ/mol]
      Exch-Disp20 (OS)              0.00000000 [mEh]       0.00000000 [kcal/mol]       0.00000000 [kJ/mol]

  Total HF                          0.02426730 [mEh]       0.01522796 [kcal/mol]       0.06371380 [kJ/mol]
  Total SAPT0                       0.02289030 [mEh]       0.01436388 [kcal/mol]       0.06009846 [kJ/mol]

  Special recipe for scaled SAPT0 (see Manual):
    Electrostatics sSAPT0           0.02445134 [mEh]       0.01534345 [kcal/mol]       0.06419699 [kJ/mol]
    Exchange sSAPT0                 0.00000000 [mEh]       0.00000000 [kcal/mol]       0.00000000 [kJ/mol]
    Induction sSAPT0               -0.00018404 [mEh]      -0.00011549 [kcal/mol]      -0.00048320 [kJ/mol]
    Dispersion sSAPT0              -0.00137701 [mEh]      -0.00086409 [kcal/mol]      -0.00361533 [kJ/mol]
  Total sSAPT0                      0.02289030 [mEh]       0.01436388 [kcal/mol]       0.06009846 [kJ/mol]
  --------------------------------------------------------------------------------------------------------

*** Psi4 exiting successfully. Buy a developer a beer!
