                               Psi4 1.4rc3

  ==> Input File <==

--------------------------------------------------------------------------
# PSI4 file produced by CrystaLattE

# Generated from:               imidazole.xyz
# Psithon input for N-mer:      2mer-0+27
# Number of atoms per monomer:  [9, 9]
# Number of replicas:           2
# COM priority:                 1.280013781763e-04
# Minimum COM separations:      10.500
# Separation priority:          4.509496231442e-04
# Minimum monomer separations:  6.901
# Cutoff priority:              3.458098592379e-05
# Nuclear repulsion energy:     393.88644215689396

memory 7 GB

molecule Dimer_0_27 {
  N           -4.29309621      -3.06837431       5.30516231
  N           -2.15847371      -2.92627296       1.72037448
  H           -0.02545587      -6.35903575       2.22046452
  H           -2.68566968      -6.53260241       6.61445954
  H           -4.74388423      -0.00609006       2.75615968
  H           -1.41045540      -2.24723147       0.00000000
  C           -1.43737991      -5.07504848       2.94065891
  C           -2.76900782      -5.14609916       5.13522880
  C           -3.85955036      -1.77728198       3.21093411
--
  N           -9.65700575       7.08172265     -10.87898141
  N           -7.52238325       7.22382401     -14.46376924
  H           -5.38936541       3.79106122     -13.96367920
  H           -8.04957922       3.61749456      -9.56968418
  H          -10.10779377      10.14400691     -13.42798405
  H           -6.77436494       7.90286550     -16.18414372
  C           -6.80128945       5.07504848     -13.24348481
  C           -8.13291736       5.00399780     -11.04891492
  C           -9.22345990       8.37281499     -12.97320961
units = au
no_com
no_reorient
}

set {
  e_convergence 10
  d_convergence 10
  scf_type df
  mp2_type df
  cc_type df
  freeze_core true
}

energy('sapt0/aug-cc-pvdz')

--------------------------------------------------------------------------

  //              Dimer HF             //
    Molecular point group: c1
  Charge       = 0
  Multiplicity = 1
  Basis Set: AUG-CC-PVDZ
    Blend: AUG-CC-PVDZ
  Basis Set: (AUG-CC-PVDZ AUX)
    Blend: AUG-CC-PVDZ-JKFIT
  @DF-RHF Final Energy:  -449.68739832513904
    Total Energy =                       -449.6873983251390428
  //            Monomer A HF           //
    Molecular point group: c1
  Multiplicity = 1
  Basis Set: AUG-CC-PVDZ
    Blend: AUG-CC-PVDZ
  Basis Set: (AUG-CC-PVDZ AUX)
    Blend: AUG-CC-PVDZ-JKFIT
  @DF-RHF Final Energy:  -224.84370030833867
    Total Energy =                       -224.8437003083386685
  //            Monomer B HF           //
    Molecular point group: c1

    Geometry (in Bohr), charge = 0, multiplicity = 1:

       Center              X                  Y                   Z               Mass
    ------------   -----------------  -----------------  -----------------  -----------------
      Gh(N)          -4.293096210000    -3.068374310000     5.305162310000    14.003074004430
      Gh(N)          -2.158473710000    -2.926272960000     1.720374480000    14.003074004430
      Gh(H)          -0.025455870000    -6.359035750000     2.220464520000     1.007825032230
      Gh(H)          -2.685669680000    -6.532602410000     6.614459540000     1.007825032230
      Gh(H)          -4.743884230000    -0.006090060000     2.756159680000     1.007825032230
      Gh(H)          -1.410455400000    -2.247231470000     0.000000000000     1.007825032230
      Gh(C)          -1.437379910000    -5.075048480000     2.940658910000    12.000000000000
      Gh(C)          -2.769007820000    -5.146099160000     5.135228800000    12.000000000000
      Gh(C)          -3.859550360000    -1.777281980000     3.210934110000    12.000000000000
         N           -9.657005750000     7.081722650000   -10.878981410000    14.003074004430
         N           -7.522383250000     7.223824010000   -14.463769240000    14.003074004430
         H           -5.389365410000     3.791061220000   -13.963679200000     1.007825032230
         H           -8.049579220000     3.617494560000    -9.569684180000     1.007825032230
         H          -10.107793770000    10.144006910000   -13.427984050000     1.007825032230
         H           -6.774364940000     7.902865500000   -16.184143720000     1.007825032230
         C           -6.801289450000     5.075048480000   -13.243484810000    12.000000000000
         C           -8.132917360000     5.003997800000   -11.048914920000    12.000000000000
         C           -9.223459900000     8.372814990000   -12.973209610000    12.000000000000

  Charge       = 0
  Multiplicity = 1
  Basis Set: AUG-CC-PVDZ
    Blend: AUG-CC-PVDZ
  Basis Set: (AUG-CC-PVDZ AUX)
    Blend: AUG-CC-PVDZ-JKFIT

    Orbital Energies [Eh]
    ---------------------

    Doubly Occupied:

       1A    -15.637071     2A    -15.551215     3A    -11.300917
       4A    -11.263158     5A    -11.245648     6A     -1.352867
       7A     -1.169099     8A     -1.012098     9A     -0.824390
      10A     -0.803731    11A     -0.760667    12A     -0.610096
      13A     -0.603958    14A     -0.601923    15A     -0.570943
      16A     -0.435482    17A     -0.400465    18A     -0.320685

  @DF-RHF Final Energy:  -224.84370163802870

   => Energetics <=

    Nuclear Repulsion Energy =            164.0866958672231135
    One-Electron Energy =                -628.9319686305069581
    Two-Electron Energy =                 240.0015711252551398
    Total Energy =                       -224.8437016380287048

  Dipole Moment: [D]
     X:     2.0431      Y:     0.4148      Z:    -3.3868     Total:     3.9770

    SAPT Results
  --------------------------------------------------------------------------------------------------------
    Electrostatics                  0.00894576 [mEh]       0.00561355 [kcal/mol]       0.02348709 [kJ/mol]
      Elst10,r                      0.00894576 [mEh]       0.00561355 [kcal/mol]       0.02348709 [kJ/mol]

    Exchange                        0.00000133 [mEh]       0.00000084 [kcal/mol]       0.00000350 [kJ/mol]
      Exch10                        0.00000133 [mEh]       0.00000084 [kcal/mol]       0.00000350 [kJ/mol]
      Exch10(S^2)                   0.00000133 [mEh]       0.00000084 [kcal/mol]       0.00000350 [kJ/mol]

    Induction                      -0.00532587 [mEh]      -0.00334203 [kcal/mol]      -0.01398306 [kJ/mol]
      Ind20,r                      -0.00518541 [mEh]      -0.00325389 [kcal/mol]      -0.01361428 [kJ/mol]
      Exch-Ind20,r                  0.00000458 [mEh]       0.00000287 [kcal/mol]       0.00001203 [kJ/mol]
      delta HF,r (2)               -0.00014504 [mEh]      -0.00009101 [kcal/mol]      -0.00038080 [kJ/mol]

    Dispersion                     -0.02846959 [mEh]      -0.01786493 [kcal/mol]      -0.07474689 [kJ/mol]
      Disp20                       -0.02847020 [mEh]      -0.01786532 [kcal/mol]      -0.07474850 [kJ/mol]
      Exch-Disp20                   0.00000061 [mEh]       0.00000039 [kcal/mol]       0.00000161 [kJ/mol]
      Disp20 (SS)                  -0.01423510 [mEh]      -0.00893266 [kcal/mol]      -0.03737425 [kJ/mol]
      Disp20 (OS)                  -0.01423510 [mEh]      -0.00893266 [kcal/mol]      -0.03737425 [kJ/mol]
      Exch-Disp20 (SS)              0.00000051 [mEh]       0.00000032 [kcal/mol]       0.00000135 [kJ/mol]
      Exch-Disp20 (OS)              0.00000010 [mEh]       0.00000006 [kcal/mol]       0.00000026 [kJ/mol]

  Total HF                          0.00362123 [mEh]       0.00227236 [kcal/mol]       0.00950753 [kJ/mol]
  Total SAPT0                      -0.02484836 [mEh]      -0.01559258 [kcal/mol]      -0.06523935 [kJ/mol]

  Special recipe for scaled SAPT0 (see Manual):
    Electrostatics sSAPT0           0.00894576 [mEh]       0.00561355 [kcal/mol]       0.02348709 [kJ/mol]
    Exchange sSAPT0                 0.00000133 [mEh]       0.00000084 [kcal/mol]       0.00000350 [kJ/mol]
    Induction sSAPT0               -0.00532587 [mEh]      -0.00334203 [kcal/mol]      -0.01398306 [kJ/mol]
    Dispersion sSAPT0              -0.02846959 [mEh]      -0.01786493 [kcal/mol]      -0.07474689 [kJ/mol]
  Total sSAPT0                     -0.02484836 [mEh]      -0.01559258 [kcal/mol]      -0.06523935 [kJ/mol]
  --------------------------------------------------------------------------------------------------------

*** Psi4 exiting successfully. Buy a developer a beer!
