                               Psi4 1.4rc3

  ==> Input File <==

--------------------------------------------------------------------------
# PSI4 file produced by CrystaLattE

# Generated from:               imidazole.xyz
# Psithon input for N-mer:      2mer-0+57
# Number of atoms per monomer:  [9, 9]
# Number of replicas:           2
# COM priority:                 1.064155155576e-04
# Minimum COM separations:      11.167
# Separation priority:          2.677737066302e-04
# Minimum monomer separations:  8.210
# Cutoff priority:              1.725932898670e-05
# Nuclear repulsion energy:     389.87447257355035

memory 7 GB

molecule Dimer_0_57 {
  N           -4.29309621      -3.06837431       5.30516231
  N           -2.15847371      -2.92627296       1.72037448
  H           -0.02545587      -6.35903575       2.22046452
  H           -2.68566968      -6.53260241       6.61445954
  H           -4.74388423      -0.00609006       2.75615968
  H           -1.41045540      -2.24723147       0.00000000
  C           -1.43737991      -5.07504848       2.94065891
  C           -2.76900782      -5.14609916       5.13522880
  C           -3.85955036      -1.77728198       3.21093411
--
  N            4.67127568     -13.21847128     -10.87898141
  N            6.80589818     -13.07636992     -14.46376924
  H            8.93891602     -16.50913271     -13.96367920
  H            6.27870221     -16.68269937      -9.56968418
  H            4.22048766     -10.15618702     -13.42798405
  H            7.55391648     -12.39732843     -16.18414372
  C            7.52699198     -15.22514545     -13.24348481
  C            6.19536407     -15.29619613     -11.04891492
  C            5.10482153     -11.92737894     -12.97320961
units = au
no_com
no_reorient
}

set {
  e_convergence 10
  d_convergence 10
  scf_type df
  mp2_type df
  cc_type df
  freeze_core true
}

energy('sapt0/aug-cc-pvdz')

--------------------------------------------------------------------------

  //              Dimer HF             //
    Molecular point group: c1
  Charge       = 0
  Multiplicity = 1
  Basis Set: AUG-CC-PVDZ
    Blend: AUG-CC-PVDZ
  Basis Set: (AUG-CC-PVDZ AUX)
    Blend: AUG-CC-PVDZ-JKFIT
  @DF-RHF Final Energy:  -449.68767224527460
    Total Energy =                       -449.6876722452745980
  //            Monomer A HF           //
    Molecular point group: c1
  Multiplicity = 1
  Basis Set: AUG-CC-PVDZ
    Blend: AUG-CC-PVDZ
  Basis Set: (AUG-CC-PVDZ AUX)
    Blend: AUG-CC-PVDZ-JKFIT
  @DF-RHF Final Energy:  -224.84369839535529
    Total Energy =                       -224.8436983953552897
  //            Monomer B HF           //
    Molecular point group: c1

    Geometry (in Bohr), charge = 0, multiplicity = 1:

       Center              X                  Y                   Z               Mass
    ------------   -----------------  -----------------  -----------------  -----------------
      Gh(N)          -4.293096210000    -3.068374310000     5.305162310000    14.003074004430
      Gh(N)          -2.158473710000    -2.926272960000     1.720374480000    14.003074004430
      Gh(H)          -0.025455870000    -6.359035750000     2.220464520000     1.007825032230
      Gh(H)          -2.685669680000    -6.532602410000     6.614459540000     1.007825032230
      Gh(H)          -4.743884230000    -0.006090060000     2.756159680000     1.007825032230
      Gh(H)          -1.410455400000    -2.247231470000     0.000000000000     1.007825032230
      Gh(C)          -1.437379910000    -5.075048480000     2.940658910000    12.000000000000
      Gh(C)          -2.769007820000    -5.146099160000     5.135228800000    12.000000000000
      Gh(C)          -3.859550360000    -1.777281980000     3.210934110000    12.000000000000
         N            4.671275680000   -13.218471280000   -10.878981410000    14.003074004430
         N            6.805898180000   -13.076369920000   -14.463769240000    14.003074004430
         H            8.938916020000   -16.509132710000   -13.963679200000     1.007825032230
         H            6.278702210000   -16.682699370000    -9.569684180000     1.007825032230
         H            4.220487660000   -10.156187020000   -13.427984050000     1.007825032230
         H            7.553916480000   -12.397328430000   -16.184143720000     1.007825032230
         C            7.526991980000   -15.225145450000   -13.243484810000    12.000000000000
         C            6.195364070000   -15.296196130000   -11.048914920000    12.000000000000
         C            5.104821530000   -11.927378940000   -12.973209610000    12.000000000000

  Charge       = 0
  Multiplicity = 1
  Basis Set: AUG-CC-PVDZ
    Blend: AUG-CC-PVDZ
  Basis Set: (AUG-CC-PVDZ AUX)
    Blend: AUG-CC-PVDZ-JKFIT

    Orbital Energies [Eh]
    ---------------------

    Doubly Occupied:

       1A    -15.637071     2A    -15.551217     3A    -11.300916
       4A    -11.263160     5A    -11.245652     6A     -1.352867
       7A     -1.169099     8A     -1.012098     9A     -0.824390
      10A     -0.803731    11A     -0.760666    12A     -0.610096
      13A     -0.603958    14A     -0.601922    15A     -0.570942
      16A     -0.435483    17A     -0.400465    18A     -0.320685

  @DF-RHF Final Energy:  -224.84369921678868

   => Energetics <=

    Nuclear Repulsion Energy =            164.0866958774809063
    One-Electron Energy =                -628.9319561480876928
    Two-Electron Energy =                 240.0015610538181079
    Total Energy =                       -224.8436992167886785

  Dipole Moment: [D]
     X:     2.0430      Y:     0.4150      Z:    -3.3866     Total:     3.9769

    SAPT Results
  --------------------------------------------------------------------------------------------------------
    Electrostatics                 -0.26913966 [mEh]      -0.16888769 [kcal/mol]      -0.70662609 [kJ/mol]
      Elst10,r                     -0.26913966 [mEh]      -0.16888769 [kcal/mol]      -0.70662609 [kJ/mol]

    Exchange                        0.00000169 [mEh]       0.00000106 [kcal/mol]       0.00000445 [kJ/mol]
      Exch10                        0.00000169 [mEh]       0.00000106 [kcal/mol]       0.00000445 [kJ/mol]
      Exch10(S^2)                   0.00000169 [mEh]       0.00000106 [kcal/mol]       0.00000445 [kJ/mol]

    Induction                      -0.00549516 [mEh]      -0.00344827 [kcal/mol]      -0.01442755 [kJ/mol]
      Ind20,r                      -0.00549598 [mEh]      -0.00344878 [kcal/mol]      -0.01442970 [kJ/mol]
      Exch-Ind20,r                  0.00000437 [mEh]       0.00000274 [kcal/mol]       0.00001148 [kJ/mol]
      delta HF,r (2)               -0.00000355 [mEh]      -0.00000223 [kcal/mol]      -0.00000933 [kJ/mol]

    Dispersion                     -0.01851887 [mEh]      -0.01162077 [kcal/mol]      -0.04862128 [kJ/mol]
      Disp20                       -0.01851922 [mEh]      -0.01162099 [kcal/mol]      -0.04862221 [kJ/mol]
      Exch-Disp20                   0.00000035 [mEh]       0.00000022 [kcal/mol]       0.00000093 [kJ/mol]
      Disp20 (SS)                  -0.00925961 [mEh]      -0.00581049 [kcal/mol]      -0.02431111 [kJ/mol]
      Disp20 (OS)                  -0.00925961 [mEh]      -0.00581049 [kcal/mol]      -0.02431111 [kJ/mol]
      Exch-Disp20 (SS)              0.00000029 [mEh]       0.00000018 [kcal/mol]       0.00000076 [kJ/mol]
      Exch-Disp20 (OS)              0.00000006 [mEh]       0.00000004 [kcal/mol]       0.00000017 [kJ/mol]

  Total HF                         -0.27463313 [mEh]      -0.17233489 [kcal/mol]      -0.72104919 [kJ/mol]
  Total SAPT0                      -0.29315200 [mEh]      -0.18395566 [kcal/mol]      -0.76967047 [kJ/mol]

  Special recipe for scaled SAPT0 (see Manual):
    Electrostatics sSAPT0          -0.26913966 [mEh]      -0.16888769 [kcal/mol]      -0.70662609 [kJ/mol]
    Exchange sSAPT0                 0.00000169 [mEh]       0.00000106 [kcal/mol]       0.00000445 [kJ/mol]
    Induction sSAPT0               -0.00549516 [mEh]      -0.00344827 [kcal/mol]      -0.01442755 [kJ/mol]
    Dispersion sSAPT0              -0.01851887 [mEh]      -0.01162077 [kcal/mol]      -0.04862128 [kJ/mol]
  Total sSAPT0                     -0.29315200 [mEh]      -0.18395566 [kcal/mol]      -0.76967047 [kJ/mol]
  --------------------------------------------------------------------------------------------------------

*** Psi4 exiting successfully. Buy a developer a beer!
