                               Psi4 1.4rc3

  ==> Input File <==

--------------------------------------------------------------------------
# PSI4 file produced by CrystaLattE

# Generated from:               imidazole.xyz
# Psithon input for N-mer:      2mer-0+83
# Number of atoms per monomer:  [9, 9]
# Number of replicas:           2
# COM priority:                 5.350650941587e-05
# Minimum COM separations:      14.043
# Separation priority:          1.149656596710e-04
# Minimum monomer separations:  10.883
# Cutoff priority:              5.590159260231e-06
# Nuclear repulsion energy:     376.9586383645087

memory 7 GB

molecule Dimer_0_83 {
  N           -4.29309621      -3.06837431       5.30516231
  N           -2.15847371      -2.92627296       1.72037448
  H           -0.02545587      -6.35903575       2.22046452
  H           -2.68566968      -6.53260241       6.61445954
  H           -4.74388423      -0.00609006       2.75615968
  H           -1.41045540      -2.24723147       0.00000000
  C           -1.43737991      -5.07504848       2.94065891
  C           -2.76900782      -5.14609916       5.13522880
  C           -3.85955036      -1.77728198       3.21093411
--
  N            5.55299927      19.19687839      13.39723417
  N            7.68762177      19.05477703       9.81244634
  H            9.82063962      22.48753983      10.31253638
  H            7.16042580      22.66110648      14.70653140
  H            5.10221126      16.13459414      10.84823154
  H            8.43564008      18.37573555       8.09207186
  C            8.40871557      21.20355256      11.03273078
  C            7.07708766      21.27460324      13.22730066
  C            5.98654513      17.90578606      11.30300598
units = au
no_com
no_reorient
}

set {
  e_convergence 10
  d_convergence 10
  scf_type df
  mp2_type df
  cc_type df
  freeze_core true
}

energy('sapt0/aug-cc-pvdz')

--------------------------------------------------------------------------

  //              Dimer HF             //
    Molecular point group: c1
  Charge       = 0
  Multiplicity = 1
  Basis Set: AUG-CC-PVDZ
    Blend: AUG-CC-PVDZ
  Basis Set: (AUG-CC-PVDZ AUX)
    Blend: AUG-CC-PVDZ-JKFIT
  @DF-RHF Final Energy:  -449.68725048352900
    Total Energy =                       -449.6872504835290556
  //            Monomer A HF           //
    Molecular point group: c1
  Multiplicity = 1
  Basis Set: AUG-CC-PVDZ
    Blend: AUG-CC-PVDZ
  Basis Set: (AUG-CC-PVDZ AUX)
    Blend: AUG-CC-PVDZ-JKFIT
  @DF-RHF Final Energy:  -224.84369633617774
    Total Energy =                       -224.8436963361777430
  //            Monomer B HF           //
    Molecular point group: c1

    Geometry (in Bohr), charge = 0, multiplicity = 1:

       Center              X                  Y                   Z               Mass
    ------------   -----------------  -----------------  -----------------  -----------------
      Gh(N)          -4.293096210000    -3.068374310000     5.305162310000    14.003074004430
      Gh(N)          -2.158473710000    -2.926272960000     1.720374480000    14.003074004430
      Gh(H)          -0.025455870000    -6.359035750000     2.220464520000     1.007825032230
      Gh(H)          -2.685669680000    -6.532602410000     6.614459540000     1.007825032230
      Gh(H)          -4.743884230000    -0.006090060000     2.756159680000     1.007825032230
      Gh(H)          -1.410455400000    -2.247231470000     0.000000000000     1.007825032230
      Gh(C)          -1.437379910000    -5.075048480000     2.940658910000    12.000000000000
      Gh(C)          -2.769007820000    -5.146099160000     5.135228800000    12.000000000000
      Gh(C)          -3.859550360000    -1.777281980000     3.210934110000    12.000000000000
         N            5.552999270000    19.196878390000    13.397234170000    14.003074004430
         N            7.687621770000    19.054777030000     9.812446340000    14.003074004430
         H            9.820639620000    22.487539830000    10.312536380000     1.007825032230
         H            7.160425800000    22.661106480000    14.706531400000     1.007825032230
         H            5.102211260000    16.134594140000    10.848231540000     1.007825032230
         H            8.435640080000    18.375735550000     8.092071860000     1.007825032230
         C            8.408715570000    21.203552560000    11.032730780000    12.000000000000
         C            7.077087660000    21.274603240000    13.227300660000    12.000000000000
         C            5.986545130000    17.905786060000    11.303005980000    12.000000000000

  Charge       = 0
  Multiplicity = 1
  Basis Set: AUG-CC-PVDZ
    Blend: AUG-CC-PVDZ
  Basis Set: (AUG-CC-PVDZ AUX)
    Blend: AUG-CC-PVDZ-JKFIT

    Orbital Energies [Eh]
    ---------------------

    Doubly Occupied:

       1A    -15.637071     2A    -15.551216     3A    -11.300916
       4A    -11.263160     5A    -11.245653     6A     -1.352867
       7A     -1.169098     8A     -1.012098     9A     -0.824390
      10A     -0.803731    11A     -0.760666    12A     -0.610096
      13A     -0.603958    14A     -0.601922    15A     -0.570942
      16A     -0.435483    17A     -0.400464    18A     -0.320685

  @DF-RHF Final Energy:  -224.84369633385472

   => Energetics <=

    Nuclear Repulsion Energy =            164.0866960692174246
    One-Electron Energy =                -628.9319570533757542
    Two-Electron Energy =                 240.0015646503036351
    Total Energy =                       -224.8436963338547230

  Dipole Moment: [D]
     X:     2.0431      Y:    -0.4150      Z:    -3.3867     Total:     3.9769

    SAPT Results
  --------------------------------------------------------------------------------------------------------
    Electrostatics                  0.14265878 [mEh]       0.08951974 [kcal/mol]       0.37455059 [kJ/mol]
      Elst10,r                      0.14265878 [mEh]       0.08951974 [kcal/mol]       0.37455059 [kJ/mol]

    Exchange                       -0.00000001 [mEh]      -0.00000001 [kcal/mol]      -0.00000003 [kJ/mol]
      Exch10                       -0.00000001 [mEh]      -0.00000001 [kcal/mol]      -0.00000003 [kJ/mol]
      Exch10(S^2)                  -0.00000001 [mEh]      -0.00000001 [kcal/mol]      -0.00000003 [kJ/mol]

    Induction                      -0.00047227 [mEh]      -0.00029635 [kcal/mol]      -0.00123994 [kJ/mol]
      Ind20,r                      -0.00050284 [mEh]      -0.00031554 [kcal/mol]      -0.00132021 [kJ/mol]
      Exch-Ind20,r                  0.00000004 [mEh]       0.00000003 [kcal/mol]       0.00000011 [kJ/mol]
      delta HF,r (2)                0.00003053 [mEh]       0.00001916 [kcal/mol]       0.00008016 [kJ/mol]

    Dispersion                     -0.00367702 [mEh]      -0.00230737 [kcal/mol]      -0.00965403 [kJ/mol]
      Disp20                       -0.00367703 [mEh]      -0.00230737 [kcal/mol]      -0.00965405 [kJ/mol]
      Exch-Disp20                   0.00000001 [mEh]       0.00000001 [kcal/mol]       0.00000002 [kJ/mol]
      Disp20 (SS)                  -0.00183852 [mEh]      -0.00115369 [kcal/mol]      -0.00482702 [kJ/mol]
      Disp20 (OS)                  -0.00183852 [mEh]      -0.00115369 [kcal/mol]      -0.00482702 [kJ/mol]
      Exch-Disp20 (SS)              0.00000001 [mEh]       0.00000000 [kcal/mol]       0.00000002 [kJ/mol]
      Exch-Disp20 (OS)              0.00000000 [mEh]       0.00000000 [kcal/mol]       0.00000000 [kJ/mol]

  Total HF                          0.14218650 [mEh]       0.08922338 [kcal/mol]       0.37331061 [kJ/mol]
  Total SAPT0                       0.13850948 [mEh]       0.08691601 [kcal/mol]       0.36365659 [kJ/mol]

  Special recipe for scaled SAPT0 (see Manual):
    Electrostatics sSAPT0           0.14265878 [mEh]       0.08951974 [kcal/mol]       0.37455059 [kJ/mol]
    Exchange sSAPT0                -0.00000001 [mEh]      -0.00000001 [kcal/mol]      -0.00000003 [kJ/mol]
    Induction sSAPT0               -0.00047227 [mEh]      -0.00029635 [kcal/mol]      -0.00123994 [kJ/mol]
    Dispersion sSAPT0              -0.00367702 [mEh]      -0.00230737 [kcal/mol]      -0.00965403 [kJ/mol]
  Total sSAPT0                      0.13850948 [mEh]       0.08691601 [kcal/mol]       0.36365659 [kJ/mol]
  --------------------------------------------------------------------------------------------------------

*** Psi4 exiting successfully. Buy a developer a beer!
