                               Psi4 1.4rc3

  ==> Input File <==

--------------------------------------------------------------------------
# PSI4 file produced by CrystaLattE

# Generated from:               imidazole.xyz
# Psithon input for N-mer:      2mer-0+123
# Number of atoms per monomer:  [9, 9]
# Number of replicas:           1
# COM priority:                 3.554131388741e-05
# Minimum COM separations:      16.095
# Separation priority:          7.603500288193e-05
# Minimum monomer separations:  12.491
# Cutoff priority:              3.221202956202e-06
# Nuclear repulsion energy:     371.0710859183873

memory 7 GB

molecule Dimer_0_123 {
  N           -4.29309621      -3.06837431       5.30516231
  N           -2.15847371      -2.92627296       1.72037448
  H           -0.02545587      -6.35903575       2.22046452
  H           -2.68566968      -6.53260241       6.61445954
  H           -4.74388423      -0.00609006       2.75615968
  H           -1.41045540      -2.24723147       0.00000000
  C           -1.43737991      -5.07504848       2.94065891
  C           -2.76900782      -5.14609916       5.13522880
  C           -3.85955036      -1.77728198       3.21093411
--
  N           18.56285270      -6.17836402     -20.87754540
  N           16.42823020      -6.32046538     -17.29275757
  H           14.29521236      -2.88770259     -17.79284761
  H           16.95542617      -2.71413593     -22.18684263
  H           19.01364072      -9.24064828     -18.32854276
  H           15.68021189      -6.99950687     -15.57238309
  C           15.70713640      -4.17168985     -18.51304200
  C           17.03876431      -4.10063917     -20.70761189
  C           18.12930685      -7.46945636     -18.78331720
units = au
no_com
no_reorient
}

set {
  e_convergence 10
  d_convergence 10
  scf_type df
  mp2_type df
  cc_type df
  freeze_core true
}

energy('sapt0/aug-cc-pvdz')

--------------------------------------------------------------------------

  //              Dimer HF             //
    Molecular point group: c1
  Charge       = 0
  Multiplicity = 1
  Basis Set: AUG-CC-PVDZ
    Blend: AUG-CC-PVDZ
  Basis Set: (AUG-CC-PVDZ AUX)
    Blend: AUG-CC-PVDZ-JKFIT
  @DF-RHF Final Energy:  -449.68723391614287
    Total Energy =                       -449.6872339161428727
  //            Monomer A HF           //
    Molecular point group: c1
  Multiplicity = 1
  Basis Set: AUG-CC-PVDZ
    Blend: AUG-CC-PVDZ
  Basis Set: (AUG-CC-PVDZ AUX)
    Blend: AUG-CC-PVDZ-JKFIT
  @DF-RHF Final Energy:  -224.84369628039903
    Total Energy =                       -224.8436962803990298
  //            Monomer B HF           //
    Molecular point group: c1

    Geometry (in Bohr), charge = 0, multiplicity = 1:

       Center              X                  Y                   Z               Mass
    ------------   -----------------  -----------------  -----------------  -----------------
      Gh(N)          -4.293096210000    -3.068374310000     5.305162310000    14.003074004430
      Gh(N)          -2.158473710000    -2.926272960000     1.720374480000    14.003074004430
      Gh(H)          -0.025455870000    -6.359035750000     2.220464520000     1.007825032230
      Gh(H)          -2.685669680000    -6.532602410000     6.614459540000     1.007825032230
      Gh(H)          -4.743884230000    -0.006090060000     2.756159680000     1.007825032230
      Gh(H)          -1.410455400000    -2.247231470000     0.000000000000     1.007825032230
      Gh(C)          -1.437379910000    -5.075048480000     2.940658910000    12.000000000000
      Gh(C)          -2.769007820000    -5.146099160000     5.135228800000    12.000000000000
      Gh(C)          -3.859550360000    -1.777281980000     3.210934110000    12.000000000000
         N           18.562852700000    -6.178364020000   -20.877545400000    14.003074004430
         N           16.428230200000    -6.320465380000   -17.292757570000    14.003074004430
         H           14.295212360000    -2.887702590000   -17.792847610000     1.007825032230
         H           16.955426170000    -2.714135930000   -22.186842630000     1.007825032230
         H           19.013640720000    -9.240648280000   -18.328542760000     1.007825032230
         H           15.680211890000    -6.999506870000   -15.572383090000     1.007825032230
         C           15.707136400000    -4.171689850000   -18.513042000000    12.000000000000
         C           17.038764310000    -4.100639170000   -20.707611890000    12.000000000000
         C           18.129306850000    -7.469456360000   -18.783317200000    12.000000000000

  Charge       = 0
  Multiplicity = 1
  Basis Set: AUG-CC-PVDZ
    Blend: AUG-CC-PVDZ
  Basis Set: (AUG-CC-PVDZ AUX)
    Blend: AUG-CC-PVDZ-JKFIT

    Orbital Energies [Eh]
    ---------------------

    Doubly Occupied:

       1A    -15.637071     2A    -15.551216     3A    -11.300916
       4A    -11.263160     5A    -11.245653     6A     -1.352867
       7A     -1.169098     8A     -1.012098     9A     -0.824390
      10A     -0.803731    11A     -0.760666    12A     -0.610096
      13A     -0.603958    14A     -0.601922    15A     -0.570942
      16A     -0.435483    17A     -0.400464    18A     -0.320685

  @DF-RHF Final Energy:  -224.84369628082217

   => Energetics <=

    Nuclear Repulsion Energy =            164.0866958672231419
    One-Electron Energy =                -628.9319560811486554
    Two-Electron Energy =                 240.0015639331033128
    Total Energy =                       -224.8436962808221722

  Dipole Moment: [D]
     X:    -2.0431      Y:    -0.4150      Z:     3.3867     Total:     3.9769

    SAPT Results
  --------------------------------------------------------------------------------------------------------
    Electrostatics                  0.15936490 [mEh]       0.10000298 [kcal/mol]       0.41841248 [kJ/mol]
      Elst10,r                      0.15936490 [mEh]       0.10000298 [kcal/mol]       0.41841248 [kJ/mol]

    Exchange                        0.00000000 [mEh]       0.00000000 [kcal/mol]       0.00000001 [kJ/mol]
      Exch10                        0.00000000 [mEh]       0.00000000 [kcal/mol]       0.00000001 [kJ/mol]
      Exch10(S^2)                   0.00000000 [mEh]       0.00000000 [kcal/mol]       0.00000001 [kJ/mol]

    Induction                      -0.00071982 [mEh]      -0.00045169 [kcal/mol]      -0.00188989 [kJ/mol]
      Ind20,r                      -0.00071632 [mEh]      -0.00044949 [kcal/mol]      -0.00188069 [kJ/mol]
      Exch-Ind20,r                  0.00000000 [mEh]       0.00000000 [kcal/mol]       0.00000001 [kJ/mol]
      delta HF,r (2)               -0.00000351 [mEh]      -0.00000220 [kcal/mol]      -0.00000922 [kJ/mol]

    Dispersion                     -0.00196408 [mEh]      -0.00123248 [kcal/mol]      -0.00515669 [kJ/mol]
      Disp20                       -0.00196408 [mEh]      -0.00123248 [kcal/mol]      -0.00515669 [kJ/mol]
      Exch-Disp20                   0.00000000 [mEh]       0.00000000 [kcal/mol]       0.00000000 [kJ/mol]
      Disp20 (SS)                  -0.00098204 [mEh]      -0.00061624 [kcal/mol]      -0.00257835 [kJ/mol]
      Disp20 (OS)                  -0.00098204 [mEh]      -0.00061624 [kcal/mol]      -0.00257835 [kJ/mol]
      Exch-Disp20 (SS)              0.00000000 [mEh]       0.00000000 [kcal/mol]       0.00000000 [kJ/mol]
      Exch-Disp20 (OS)              0.00000000 [mEh]       0.00000000 [kcal/mol]       0.00000000 [kJ/mol]

  Total HF                          0.15864508 [mEh]       0.09955129 [kcal/mol]       0.41652260 [kJ/mol]
  Total SAPT0                       0.15668100 [mEh]       0.09831881 [kcal/mol]       0.41136590 [kJ/mol]

  Special recipe for scaled SAPT0 (see Manual):
    Electrostatics sSAPT0           0.15936490 [mEh]       0.10000298 [kcal/mol]       0.41841248 [kJ/mol]
    Exchange sSAPT0                 0.00000000 [mEh]       0.00000000 [kcal/mol]       0.00000001 [kJ/mol]
    Induction sSAPT0               -0.00071982 [mEh]      -0.00045169 [kcal/mol]      -0.00188989 [kJ/mol]
    Dispersion sSAPT0              -0.00196408 [mEh]      -0.00123248 [kcal/mol]      -0.00515669 [kJ/mol]
  Total sSAPT0                      0.15668100 [mEh]       0.09831881 [kcal/mol]       0.41136590 [kJ/mol]
  --------------------------------------------------------------------------------------------------------

*** Psi4 exiting successfully. Buy a developer a beer!
