                               Psi4 1.4rc3

  ==> Input File <==

--------------------------------------------------------------------------
# PSI4 file produced by CrystaLattE

# Generated from:               imidazole.xyz
# Psithon input for N-mer:      2mer-0+254
# Number of atoms per monomer:  [9, 9]
# Number of replicas:           2
# COM priority:                 2.209352763595e-05
# Minimum COM separations:      18.859
# Separation priority:          3.607152665166e-05
# Minimum monomer separations:  16.016
# Cutoff priority:              1.191843862580e-06
# Nuclear repulsion energy:     364.54664189650583

memory 7 GB

molecule Dimer_0_254 {
  N           -4.29309621      -3.06837431       5.30516231
  N           -2.15847371      -2.92627296       1.72037448
  H           -0.02545587      -6.35903575       2.22046452
  H           -2.68566968      -6.53260241       6.61445954
  H           -4.74388423      -0.00609006       2.75615968
  H           -1.41045540      -2.24723147       0.00000000
  C           -1.43737991      -5.07504848       2.94065891
  C           -2.76900782      -5.14609916       5.13522880
  C           -3.85955036      -1.77728198       3.21093411
--
  N           33.77285773       2.00667417       3.39867018
  N           31.63823523       2.14877553       6.98345802
  H           29.50521738      -1.28398727       6.48336797
  H           32.16543120      -1.45755392       2.08937295
  H           34.22364574       5.06895842       5.94767282
  H           30.89021692       2.82781701       8.70383249
  C           30.91714143      -0.00000000       5.76317358
  C           32.24876933      -0.07105068       3.56860369
  C           33.33931187       3.29776650       5.49289838
units = au
no_com
no_reorient
}

set {
  e_convergence 10
  d_convergence 10
  scf_type df
  mp2_type df
  cc_type df
  freeze_core true
}

energy('sapt0/aug-cc-pvdz')

--------------------------------------------------------------------------

  //              Dimer HF             //
    Molecular point group: c1
  Charge       = 0
  Multiplicity = 1
  Basis Set: AUG-CC-PVDZ
    Blend: AUG-CC-PVDZ
  Basis Set: (AUG-CC-PVDZ AUX)
    Blend: AUG-CC-PVDZ-JKFIT
  @DF-RHF Final Energy:  -449.68742052953689
    Total Energy =                       -449.6874205295368938
  //            Monomer A HF           //
    Molecular point group: c1
  Multiplicity = 1
  Basis Set: AUG-CC-PVDZ
    Blend: AUG-CC-PVDZ
  Basis Set: (AUG-CC-PVDZ AUX)
    Blend: AUG-CC-PVDZ-JKFIT
  @DF-RHF Final Energy:  -224.84369627848255
    Total Energy =                       -224.8436962784825539
  //            Monomer B HF           //
    Molecular point group: c1

    Geometry (in Bohr), charge = 0, multiplicity = 1:

       Center              X                  Y                   Z               Mass
    ------------   -----------------  -----------------  -----------------  -----------------
      Gh(N)          -4.293096210000    -3.068374310000     5.305162310000    14.003074004430
      Gh(N)          -2.158473710000    -2.926272960000     1.720374480000    14.003074004430
      Gh(H)          -0.025455870000    -6.359035750000     2.220464520000     1.007825032230
      Gh(H)          -2.685669680000    -6.532602410000     6.614459540000     1.007825032230
      Gh(H)          -4.743884230000    -0.006090060000     2.756159680000     1.007825032230
      Gh(H)          -1.410455400000    -2.247231470000     0.000000000000     1.007825032230
      Gh(C)          -1.437379910000    -5.075048480000     2.940658910000    12.000000000000
      Gh(C)          -2.769007820000    -5.146099160000     5.135228800000    12.000000000000
      Gh(C)          -3.859550360000    -1.777281980000     3.210934110000    12.000000000000
         N           33.772857730000     2.006674170000     3.398670180000    14.003074004430
         N           31.638235230000     2.148775530000     6.983458020000    14.003074004430
         H           29.505217380000    -1.283987270000     6.483367970000     1.007825032230
         H           32.165431200000    -1.457553920000     2.089372950000     1.007825032230
         H           34.223645740000     5.068958420000     5.947672820000     1.007825032230
         H           30.890216920000     2.827817010000     8.703832490000     1.007825032230
         C           30.917141430000     0.000000000000     5.763173580000    12.000000000000
         C           32.248769330000    -0.071050680000     3.568603690000    12.000000000000
         C           33.339311870000     3.297766500000     5.492898380000    12.000000000000

  Charge       = 0
  Multiplicity = 1
  Basis Set: AUG-CC-PVDZ
    Blend: AUG-CC-PVDZ
  Basis Set: (AUG-CC-PVDZ AUX)
    Blend: AUG-CC-PVDZ-JKFIT

    Orbital Energies [Eh]
    ---------------------

    Doubly Occupied:

       1A    -15.637071     2A    -15.551216     3A    -11.300916
       4A    -11.263160     5A    -11.245653     6A     -1.352867
       7A     -1.169098     8A     -1.012098     9A     -0.824390
      10A     -0.803731    11A     -0.760666    12A     -0.610096
      13A     -0.603958    14A     -0.601922    15A     -0.570942
      16A     -0.435483    17A     -0.400464    18A     -0.320685

  @DF-RHF Final Energy:  -224.84369627849975

   => Energetics <=

    Nuclear Repulsion Energy =            164.0866959057538281
    One-Electron Energy =                -628.9319561235265610
    Two-Electron Energy =                 240.0015639392730122
    Total Energy =                       -224.8436962784997490

  Dipole Moment: [D]
     X:    -2.0431      Y:     0.4150      Z:     3.3867     Total:     3.9769

    SAPT Results
  --------------------------------------------------------------------------------------------------------
    Electrostatics                 -0.02790216 [mEh]      -0.01750887 [kcal/mol]      -0.07325711 [kJ/mol]
      Elst10,r                     -0.02790216 [mEh]      -0.01750887 [kcal/mol]      -0.07325711 [kJ/mol]

    Exchange                        0.00000000 [mEh]       0.00000000 [kcal/mol]       0.00000000 [kJ/mol]
      Exch10                        0.00000000 [mEh]       0.00000000 [kcal/mol]       0.00000000 [kJ/mol]
      Exch10(S^2)                   0.00000000 [mEh]       0.00000000 [kcal/mol]       0.00000000 [kJ/mol]

    Induction                      -0.00007039 [mEh]      -0.00004417 [kcal/mol]      -0.00018482 [kJ/mol]
      Ind20,r                      -0.00006866 [mEh]      -0.00004308 [kcal/mol]      -0.00018025 [kJ/mol]
      Exch-Ind20,r                  0.00000000 [mEh]       0.00000000 [kcal/mol]       0.00000000 [kJ/mol]
      delta HF,r (2)               -0.00000174 [mEh]      -0.00000109 [kcal/mol]      -0.00000456 [kJ/mol]

    Dispersion                     -0.00058630 [mEh]      -0.00036791 [kcal/mol]      -0.00153933 [kJ/mol]
      Disp20                       -0.00058630 [mEh]      -0.00036791 [kcal/mol]      -0.00153933 [kJ/mol]
      Exch-Disp20                   0.00000000 [mEh]       0.00000000 [kcal/mol]       0.00000000 [kJ/mol]
      Disp20 (SS)                  -0.00029315 [mEh]      -0.00018395 [kcal/mol]      -0.00076967 [kJ/mol]
      Disp20 (OS)                  -0.00029315 [mEh]      -0.00018395 [kcal/mol]      -0.00076967 [kJ/mol]
      Exch-Disp20 (SS)              0.00000000 [mEh]       0.00000000 [kcal/mol]       0.00000000 [kJ/mol]
      Exch-Disp20 (OS)              0.00000000 [mEh]       0.00000000 [kcal/mol]       0.00000000 [kJ/mol]

  Total HF                         -0.02797255 [mEh]      -0.01755304 [kcal/mol]      -0.07344193 [kJ/mol]
  Total SAPT0                      -0.02855885 [mEh]      -0.01792095 [kcal/mol]      -0.07498126 [kJ/mol]

  Special recipe for scaled SAPT0 (see Manual):
    Electrostatics sSAPT0          -0.02790216 [mEh]      -0.01750887 [kcal/mol]      -0.07325711 [kJ/mol]
    Exchange sSAPT0                 0.00000000 [mEh]       0.00000000 [kcal/mol]       0.00000000 [kJ/mol]
    Induction sSAPT0               -0.00007039 [mEh]      -0.00004417 [kcal/mol]      -0.00018482 [kJ/mol]
    Dispersion sSAPT0              -0.00058630 [mEh]      -0.00036791 [kcal/mol]      -0.00153933 [kJ/mol]
  Total sSAPT0                     -0.02855885 [mEh]      -0.01792095 [kcal/mol]      -0.07498126 [kJ/mol]
  --------------------------------------------------------------------------------------------------------

*** Psi4 exiting successfully. Buy a developer a beer!
