                               Psi4 1.4rc3

  ==> Input File <==

--------------------------------------------------------------------------
# PSI4 file produced by CrystaLattE

# Generated from:               imidazole.xyz
# Psithon input for N-mer:      2mer-0+200
# Number of atoms per monomer:  [9, 9]
# Number of replicas:           1
# COM priority:                 4.552231241767e-05
# Minimum COM separations:      14.820
# Separation priority:          6.334680769472e-05
# Minimum monomer separations:  13.275
# Cutoff priority:              2.525222470386e-06
# Nuclear repulsion energy:     374.21561164641685

memory 7 GB

molecule Dimer_0_200 {
  N           -4.29309621      -3.06837431       5.30516231
  N           -2.15847371      -2.92627296       1.72037448
  H           -0.02545587      -6.35903575       2.22046452
  H           -2.68566968      -6.53260241       6.61445954
  H           -4.74388423      -0.00609006       2.75615968
  H           -1.41045540      -2.24723147       0.00000000
  C           -1.43737991      -5.07504848       2.94065891
  C           -2.76900782      -5.14609916       5.13522880
  C           -3.85955036      -1.77728198       3.21093411
--
  N            5.99801847       3.97173294      27.67488576
  N            3.86339597       3.82963158      31.25967360
  H            1.73037812       7.26239438      30.75958356
  H            4.39059193       7.43596104      26.36558854
  H            6.44880648       0.90944869      30.22388840
  H            3.11537766       3.15059010      32.98004808
  C            3.14230217       5.97840711      30.03938916
  C            4.47393007       6.04945779      27.84481927
  C            5.56447261       2.68064061      29.76911396
units = au
no_com
no_reorient
}

set {
  e_convergence 10
  d_convergence 10
  scf_type df
  mp2_type df
  cc_type df
  freeze_core true
}

energy('sapt0/aug-cc-pvdz')

--------------------------------------------------------------------------

  //              Dimer HF             //
    Molecular point group: c1
  Charge       = 0
  Multiplicity = 1
  Basis Set: AUG-CC-PVDZ
    Blend: AUG-CC-PVDZ
  Basis Set: (AUG-CC-PVDZ AUX)
    Blend: AUG-CC-PVDZ-JKFIT
  @DF-RHF Final Energy:  -449.68734216775420
    Total Energy =                       -449.6873421677541955
  //            Monomer A HF           //
    Molecular point group: c1
  Multiplicity = 1
  Basis Set: AUG-CC-PVDZ
    Blend: AUG-CC-PVDZ
  Basis Set: (AUG-CC-PVDZ AUX)
    Blend: AUG-CC-PVDZ-JKFIT
  @DF-RHF Final Energy:  -224.84369628183885
    Total Energy =                       -224.8436962818388452
  //            Monomer B HF           //
    Molecular point group: c1

    Geometry (in Bohr), charge = 0, multiplicity = 1:

       Center              X                  Y                   Z               Mass
    ------------   -----------------  -----------------  -----------------  -----------------
      Gh(N)          -4.293096210000    -3.068374310000     5.305162310000    14.003074004430
      Gh(N)          -2.158473710000    -2.926272960000     1.720374480000    14.003074004430
      Gh(H)          -0.025455870000    -6.359035750000     2.220464520000     1.007825032230
      Gh(H)          -2.685669680000    -6.532602410000     6.614459540000     1.007825032230
      Gh(H)          -4.743884230000    -0.006090060000     2.756159680000     1.007825032230
      Gh(H)          -1.410455400000    -2.247231470000     0.000000000000     1.007825032230
      Gh(C)          -1.437379910000    -5.075048480000     2.940658910000    12.000000000000
      Gh(C)          -2.769007820000    -5.146099160000     5.135228800000    12.000000000000
      Gh(C)          -3.859550360000    -1.777281980000     3.210934110000    12.000000000000
         N            5.998018470000     3.971732940000    27.674885760000    14.003074004430
         N            3.863395970000     3.829631580000    31.259673600000    14.003074004430
         H            1.730378120000     7.262394380000    30.759583560000     1.007825032230
         H            4.390591930000     7.435961040000    26.365588540000     1.007825032230
         H            6.448806480000     0.909448690000    30.223888400000     1.007825032230
         H            3.115377660000     3.150590100000    32.980048080000     1.007825032230
         C            3.142302170000     5.978407110000    30.039389160000    12.000000000000
         C            4.473930070000     6.049457790000    27.844819270000    12.000000000000
         C            5.564472610000     2.680640610000    29.769113960000    12.000000000000

  Charge       = 0
  Multiplicity = 1
  Basis Set: AUG-CC-PVDZ
    Blend: AUG-CC-PVDZ
  Basis Set: (AUG-CC-PVDZ AUX)
    Blend: AUG-CC-PVDZ-JKFIT

    Orbital Energies [Eh]
    ---------------------

    Doubly Occupied:

       1A    -15.637071     2A    -15.551216     3A    -11.300916
       4A    -11.263160     5A    -11.245653     6A     -1.352867
       7A     -1.169098     8A     -1.012098     9A     -0.824390
      10A     -0.803731    11A     -0.760666    12A     -0.610096
      13A     -0.603958    14A     -0.601922    15A     -0.570942
      16A     -0.435483    17A     -0.400464    18A     -0.320685

  @DF-RHF Final Energy:  -224.84369628129798

   => Energetics <=

    Nuclear Repulsion Energy =            164.0866958725658833
    One-Electron Energy =                -628.9319560753162932
    Two-Electron Energy =                 240.0015639214524299
    Total Energy =                       -224.8436962812979800

  Dipole Moment: [D]
     X:    -2.0431      Y:    -0.4150      Z:     3.3867     Total:     3.9769

    SAPT Results
  --------------------------------------------------------------------------------------------------------
    Electrostatics                  0.05079397 [mEh]       0.03187370 [kcal/mol]       0.13335954 [kJ/mol]
      Elst10,r                      0.05079397 [mEh]       0.03187370 [kcal/mol]       0.13335954 [kJ/mol]

    Exchange                        0.00000000 [mEh]       0.00000000 [kcal/mol]       0.00000000 [kJ/mol]
      Exch10                        0.00000000 [mEh]       0.00000000 [kcal/mol]       0.00000000 [kJ/mol]
      Exch10(S^2)                   0.00000000 [mEh]       0.00000000 [kcal/mol]       0.00000000 [kJ/mol]

    Induction                      -0.00039859 [mEh]      -0.00025012 [kcal/mol]      -0.00104649 [kJ/mol]
      Ind20,r                      -0.00042488 [mEh]      -0.00026662 [kcal/mol]      -0.00111552 [kJ/mol]
      Exch-Ind20,r                  0.00000000 [mEh]       0.00000000 [kcal/mol]       0.00000000 [kJ/mol]
      delta HF,r (2)                0.00002629 [mEh]       0.00001650 [kcal/mol]       0.00006903 [kJ/mol]

    Dispersion                     -0.00242459 [mEh]      -0.00152145 [kcal/mol]      -0.00636576 [kJ/mol]
      Disp20                       -0.00242459 [mEh]      -0.00152145 [kcal/mol]      -0.00636576 [kJ/mol]
      Exch-Disp20                   0.00000000 [mEh]       0.00000000 [kcal/mol]       0.00000000 [kJ/mol]
      Disp20 (SS)                  -0.00121230 [mEh]      -0.00076073 [kcal/mol]      -0.00318288 [kJ/mol]
      Disp20 (OS)                  -0.00121230 [mEh]      -0.00076073 [kcal/mol]      -0.00318288 [kJ/mol]
      Exch-Disp20 (SS)              0.00000000 [mEh]       0.00000000 [kcal/mol]       0.00000000 [kJ/mol]
      Exch-Disp20 (OS)              0.00000000 [mEh]       0.00000000 [kcal/mol]       0.00000000 [kJ/mol]

  Total HF                          0.05039538 [mEh]       0.03162358 [kcal/mol]       0.13231306 [kJ/mol]
  Total SAPT0                       0.04797079 [mEh]       0.03010213 [kcal/mol]       0.12594730 [kJ/mol]

  Special recipe for scaled SAPT0 (see Manual):
    Electrostatics sSAPT0           0.05079397 [mEh]       0.03187370 [kcal/mol]       0.13335954 [kJ/mol]
    Exchange sSAPT0                 0.00000000 [mEh]       0.00000000 [kcal/mol]       0.00000000 [kJ/mol]
    Induction sSAPT0               -0.00039859 [mEh]      -0.00025012 [kcal/mol]      -0.00104649 [kJ/mol]
    Dispersion sSAPT0              -0.00242459 [mEh]      -0.00152145 [kcal/mol]      -0.00636576 [kJ/mol]
  Total sSAPT0                      0.04797079 [mEh]       0.03010213 [kcal/mol]       0.12594730 [kJ/mol]
  --------------------------------------------------------------------------------------------------------

*** Psi4 exiting successfully. Buy a developer a beer!
