                               Psi4 1.4rc3

  ==> Input File <==

--------------------------------------------------------------------------
# PSI4 file produced by CrystaLattE

# Generated from:               imidazole.xyz
# Psithon input for N-mer:      2mer-0+283
# Number of atoms per monomer:  [9, 9]
# Number of replicas:           2
# COM priority:                 1.763289449988e-05
# Minimum COM separations:      20.331
# Separation priority:          2.663214160553e-05
# Minimum monomer separations:  17.720
# Cutoff priority:              7.953191782558e-07
# Nuclear repulsion energy:     361.9212475823268

memory 7 GB

molecule Dimer_0_283 {
  N           -4.29309621      -3.06837431       5.30516231
  N           -2.15847371      -2.92627296       1.72037448
  H           -0.02545587      -6.35903575       2.22046452
  H           -2.68566968      -6.53260241       6.61445954
  H           -4.74388423      -0.00609006       2.75615968
  H           -1.41045540      -2.24723147       0.00000000
  C           -1.43737991      -5.07504848       2.94065891
  C           -2.76900782      -5.14609916       5.13522880
  C           -3.85955036      -1.77728198       3.21093411
--
  N           33.77285773      12.15677114       3.39867018
  N           31.63823523      12.29887249       6.98345802
  H           29.50521738       8.86610970       6.48336797
  H           32.16543120       8.69254304       2.08937295
  H           34.22364574      15.21905539       5.94767282
  H           30.89021692      12.97791398       8.70383249
  C           30.91714143      10.15009697       5.76317358
  C           32.24876933      10.07904629       3.56860369
  C           33.33931187      13.44786347       5.49289838
units = au
no_com
no_reorient
}

set {
  e_convergence 10
  d_convergence 10
  scf_type df
  mp2_type df
  cc_type df
  freeze_core true
}

energy('sapt0/aug-cc-pvdz')

--------------------------------------------------------------------------

  //              Dimer HF             //
    Molecular point group: c1
  Charge       = 0
  Multiplicity = 1
  Basis Set: AUG-CC-PVDZ
    Blend: AUG-CC-PVDZ
  Basis Set: (AUG-CC-PVDZ AUX)
    Blend: AUG-CC-PVDZ-JKFIT
  @DF-RHF Final Energy:  -449.68741554470085
    Total Energy =                       -449.6874155447007979
  //            Monomer A HF           //
    Molecular point group: c1
  Multiplicity = 1
  Basis Set: AUG-CC-PVDZ
    Blend: AUG-CC-PVDZ
  Basis Set: (AUG-CC-PVDZ AUX)
    Blend: AUG-CC-PVDZ-JKFIT
  @DF-RHF Final Energy:  -224.84369627816872
    Total Energy =                       -224.8436962781687214
  //            Monomer B HF           //
    Molecular point group: c1

    Geometry (in Bohr), charge = 0, multiplicity = 1:

       Center              X                  Y                   Z               Mass
    ------------   -----------------  -----------------  -----------------  -----------------
      Gh(N)          -4.293096210000    -3.068374310000     5.305162310000    14.003074004430
      Gh(N)          -2.158473710000    -2.926272960000     1.720374480000    14.003074004430
      Gh(H)          -0.025455870000    -6.359035750000     2.220464520000     1.007825032230
      Gh(H)          -2.685669680000    -6.532602410000     6.614459540000     1.007825032230
      Gh(H)          -4.743884230000    -0.006090060000     2.756159680000     1.007825032230
      Gh(H)          -1.410455400000    -2.247231470000     0.000000000000     1.007825032230
      Gh(C)          -1.437379910000    -5.075048480000     2.940658910000    12.000000000000
      Gh(C)          -2.769007820000    -5.146099160000     5.135228800000    12.000000000000
      Gh(C)          -3.859550360000    -1.777281980000     3.210934110000    12.000000000000
         N           33.772857730000    12.156771140000     3.398670180000    14.003074004430
         N           31.638235230000    12.298872490000     6.983458020000    14.003074004430
         H           29.505217380000     8.866109700000     6.483367970000     1.007825032230
         H           32.165431200000     8.692543040000     2.089372950000     1.007825032230
         H           34.223645740000    15.219055390000     5.947672820000     1.007825032230
         H           30.890216920000    12.977913980000     8.703832490000     1.007825032230
         C           30.917141430000    10.150096970000     5.763173580000    12.000000000000
         C           32.248769330000    10.079046290000     3.568603690000    12.000000000000
         C           33.339311870000    13.447863470000     5.492898380000    12.000000000000

  Charge       = 0
  Multiplicity = 1
  Basis Set: AUG-CC-PVDZ
    Blend: AUG-CC-PVDZ
  Basis Set: (AUG-CC-PVDZ AUX)
    Blend: AUG-CC-PVDZ-JKFIT

    Orbital Energies [Eh]
    ---------------------

    Doubly Occupied:

       1A    -15.637071     2A    -15.551216     3A    -11.300916
       4A    -11.263160     5A    -11.245653     6A     -1.352867
       7A     -1.169098     8A     -1.012098     9A     -0.824390
      10A     -0.803731    11A     -0.760666    12A     -0.610096
      13A     -0.603958    14A     -0.601922    15A     -0.570942
      16A     -0.435483    17A     -0.400464    18A     -0.320685

  @DF-RHF Final Energy:  -224.84369627802124

   => Energetics <=

    Nuclear Repulsion Energy =            164.0866959214235408
    One-Electron Energy =                -628.9319561537147365
    Two-Electron Energy =                 240.0015639542699546
    Total Energy =                       -224.8436962780212411

  Dipole Moment: [D]
     X:    -2.0431      Y:     0.4150      Z:     3.3867     Total:     3.9769

    SAPT Results
  --------------------------------------------------------------------------------------------------------
    Electrostatics                 -0.02294199 [mEh]      -0.01439632 [kcal/mol]      -0.06023419 [kJ/mol]
      Elst10,r                     -0.02294199 [mEh]      -0.01439632 [kcal/mol]      -0.06023419 [kJ/mol]

    Exchange                        0.00000000 [mEh]       0.00000000 [kcal/mol]       0.00000000 [kJ/mol]
      Exch10                        0.00000000 [mEh]       0.00000000 [kcal/mol]       0.00000000 [kJ/mol]
      Exch10(S^2)                   0.00000000 [mEh]       0.00000000 [kcal/mol]       0.00000000 [kJ/mol]

    Induction                      -0.00004652 [mEh]      -0.00002919 [kcal/mol]      -0.00012214 [kJ/mol]
      Ind20,r                      -0.00004480 [mEh]      -0.00002811 [kcal/mol]      -0.00011762 [kJ/mol]
      Exch-Ind20,r                  0.00000000 [mEh]       0.00000000 [kcal/mol]       0.00000000 [kJ/mol]
      delta HF,r (2)               -0.00000172 [mEh]      -0.00000108 [kcal/mol]      -0.00000452 [kJ/mol]

    Dispersion                     -0.00037183 [mEh]      -0.00023333 [kcal/mol]      -0.00097625 [kJ/mol]
      Disp20                       -0.00037183 [mEh]      -0.00023333 [kcal/mol]      -0.00097625 [kJ/mol]
      Exch-Disp20                   0.00000000 [mEh]       0.00000000 [kcal/mol]       0.00000000 [kJ/mol]
      Disp20 (SS)                  -0.00018592 [mEh]      -0.00011666 [kcal/mol]      -0.00048812 [kJ/mol]
      Disp20 (OS)                  -0.00018592 [mEh]      -0.00011666 [kcal/mol]      -0.00048812 [kJ/mol]
      Exch-Disp20 (SS)              0.00000000 [mEh]       0.00000000 [kcal/mol]       0.00000000 [kJ/mol]
      Exch-Disp20 (OS)              0.00000000 [mEh]       0.00000000 [kcal/mol]       0.00000000 [kJ/mol]

  Total HF                         -0.02298851 [mEh]      -0.01442551 [kcal/mol]      -0.06035633 [kJ/mol]
  Total SAPT0                      -0.02336034 [mEh]      -0.01465884 [kcal/mol]      -0.06133257 [kJ/mol]

  Special recipe for scaled SAPT0 (see Manual):
    Electrostatics sSAPT0          -0.02294199 [mEh]      -0.01439632 [kcal/mol]      -0.06023419 [kJ/mol]
    Exchange sSAPT0                 0.00000000 [mEh]       0.00000000 [kcal/mol]       0.00000000 [kJ/mol]
    Induction sSAPT0               -0.00004652 [mEh]      -0.00002919 [kcal/mol]      -0.00012214 [kJ/mol]
    Dispersion sSAPT0              -0.00037183 [mEh]      -0.00023333 [kcal/mol]      -0.00097625 [kJ/mol]
  Total sSAPT0                     -0.02336034 [mEh]      -0.01465884 [kcal/mol]      -0.06133257 [kJ/mol]
  --------------------------------------------------------------------------------------------------------

*** Psi4 exiting successfully. Buy a developer a beer!
