                               Psi4 1.4rc3

  ==> Input File <==

--------------------------------------------------------------------------
# PSI4 file produced by CrystaLattE

# Generated from:               imidazole.xyz
# Psithon input for N-mer:      2mer-0+8
# Number of atoms per monomer:  [9, 9]
# Number of replicas:           2
# COM priority:                 6.234450579656e-04
# Minimum COM separations:      6.194
# Separation priority:          1.203583762520e-02
# Minimum monomer separations:  2.309
# Cutoff priority:              2.758259314356e-03
# Nuclear repulsion energy:     440.97986248283456

memory 7 GB

molecule Dimer_0_8 {
  N           -4.29309621      -3.06837431       5.30516231
  N           -2.15847371      -2.92627296       1.72037448
  H           -0.02545587      -6.35903575       2.22046452
  H           -2.68566968      -6.53260241       6.61445954
  H           -4.74388423      -0.00609006       2.75615968
  H           -1.41045540      -2.24723147       0.00000000
  C           -1.43737991      -5.07504848       2.94065891
  C           -2.76900782      -5.14609916       5.13522880
  C           -3.85955036      -1.77728198       3.21093411
--
  N            0.18908973     -11.25341251      -2.78690955
  N            2.32371223     -11.39551386      -6.37169738
  H            4.45673008      -7.96275107      -5.87160734
  H            1.79651626      -7.78918441      -1.47761232
  H           -0.26169828     -14.31569676      -5.33591219
  H            3.07173054     -12.07455535      -8.09207186
  C            3.04480603      -9.24673834      -5.15141295
  C            1.71317812      -9.17568766      -2.95684306
  C            0.62263559     -12.54450484      -4.88113775
units = au
no_com
no_reorient
}

set {
  e_convergence 10
  d_convergence 10
  scf_type df
  mp2_type df
  cc_type df
  freeze_core true
}

energy('sapt0/aug-cc-pvdz')

--------------------------------------------------------------------------

  //              Dimer HF             //
    Molecular point group: c1
  Charge       = 0
  Multiplicity = 1
  Basis Set: AUG-CC-PVDZ
    Blend: AUG-CC-PVDZ
  Basis Set: (AUG-CC-PVDZ AUX)
    Blend: AUG-CC-PVDZ-JKFIT
  @DF-RHF Final Energy:  -449.68652619315583
    Total Energy =                       -449.6865261931558280
  //            Monomer A HF           //
    Molecular point group: c1
  Multiplicity = 1
  Basis Set: AUG-CC-PVDZ
    Blend: AUG-CC-PVDZ
  Basis Set: (AUG-CC-PVDZ AUX)
    Blend: AUG-CC-PVDZ-JKFIT
  @DF-RHF Final Energy:  -224.84389873653893
    Total Energy =                       -224.8438987365389323
  //            Monomer B HF           //
    Molecular point group: c1

    Geometry (in Bohr), charge = 0, multiplicity = 1:

       Center              X                  Y                   Z               Mass
    ------------   -----------------  -----------------  -----------------  -----------------
      Gh(N)          -4.293096210000    -3.068374310000     5.305162310000    14.003074004430
      Gh(N)          -2.158473710000    -2.926272960000     1.720374480000    14.003074004430
      Gh(H)          -0.025455870000    -6.359035750000     2.220464520000     1.007825032230
      Gh(H)          -2.685669680000    -6.532602410000     6.614459540000     1.007825032230
      Gh(H)          -4.743884230000    -0.006090060000     2.756159680000     1.007825032230
      Gh(H)          -1.410455400000    -2.247231470000     0.000000000000     1.007825032230
      Gh(C)          -1.437379910000    -5.075048480000     2.940658910000    12.000000000000
      Gh(C)          -2.769007820000    -5.146099160000     5.135228800000    12.000000000000
      Gh(C)          -3.859550360000    -1.777281980000     3.210934110000    12.000000000000
         N            0.189089730000   -11.253412510000    -2.786909550000    14.003074004430
         N            2.323712230000   -11.395513860000    -6.371697380000    14.003074004430
         H            4.456730080000    -7.962751070000    -5.871607340000     1.007825032230
         H            1.796516260000    -7.789184410000    -1.477612320000     1.007825032230
         H           -0.261698280000   -14.315696760000    -5.335912190000     1.007825032230
         H            3.071730540000   -12.074555350000    -8.092071860000     1.007825032230
         C            3.044806030000    -9.246738340000    -5.151412950000    12.000000000000
         C            1.713178120000    -9.175687660000    -2.956843060000    12.000000000000
         C            0.622635590000   -12.544504840000    -4.881137750000    12.000000000000

  Charge       = 0
  Multiplicity = 1
  Basis Set: AUG-CC-PVDZ
    Blend: AUG-CC-PVDZ
  Basis Set: (AUG-CC-PVDZ AUX)
    Blend: AUG-CC-PVDZ-JKFIT

    Orbital Energies [Eh]
    ---------------------

    Doubly Occupied:

       1A    -15.637072     2A    -15.551253     3A    -11.300873
       4A    -11.263112     5A    -11.245638     6A     -1.352857
       7A     -1.169080     8A     -1.012085     9A     -0.824386
      10A     -0.803722    11A     -0.760662    12A     -0.610078
      13A     -0.603955    14A     -0.601915    15A     -0.570930
      16A     -0.435467    17A     -0.400461    18A     -0.320680

  @DF-RHF Final Energy:  -224.84391027938108

   => Energetics <=

    Nuclear Repulsion Energy =            164.0866960309782598
    One-Electron Energy =                -628.9327578839287298
    Two-Electron Energy =                 240.0021515735693924
    Total Energy =                       -224.8439102793810775

  Dipole Moment: [D]
     X:     2.0431      Y:    -0.4141      Z:    -3.3852     Total:     3.9756

    SAPT Results
  --------------------------------------------------------------------------------------------------------
    Electrostatics                  0.56397152 [mEh]       0.35389747 [kcal/mol]       1.48070702 [kJ/mol]
      Elst10,r                      0.56397152 [mEh]       0.35389747 [kcal/mol]       1.48070702 [kJ/mol]

    Exchange                        1.00604023 [mEh]       0.63129978 [kcal/mol]       2.64135826 [kJ/mol]
      Exch10                        1.00604023 [mEh]       0.63129978 [kcal/mol]       2.64135826 [kJ/mol]
      Exch10(S^2)                   1.00508757 [mEh]       0.63070197 [kcal/mol]       2.63885705 [kJ/mol]

    Induction                      -0.28718899 [mEh]      -0.18021381 [kcal/mol]      -0.75401458 [kJ/mol]
      Ind20,r                      -0.32929972 [mEh]      -0.20663869 [kcal/mol]      -0.86457629 [kJ/mol]
      Exch-Ind20,r                  0.12143090 [mEh]       0.07619904 [kcal/mol]       0.31881680 [kJ/mol]
      delta HF,r (2)               -0.07932018 [mEh]      -0.04977416 [kcal/mol]      -0.20825509 [kJ/mol]

    Dispersion                     -1.67789080 [mEh]      -1.05289238 [kcal/mol]      -4.40530170 [kJ/mol]
      Disp20                       -1.76042474 [mEh]      -1.10468320 [kcal/mol]      -4.62199451 [kJ/mol]
      Exch-Disp20                   0.08253393 [mEh]       0.05179082 [kcal/mol]       0.21669281 [kJ/mol]
      Disp20 (SS)                  -0.88021237 [mEh]      -0.55234160 [kcal/mol]      -2.31099725 [kJ/mol]
      Disp20 (OS)                  -0.88021237 [mEh]      -0.55234160 [kcal/mol]      -2.31099725 [kJ/mol]
      Exch-Disp20 (SS)              0.05373874 [mEh]       0.03372157 [kcal/mol]       0.14109105 [kJ/mol]
      Exch-Disp20 (OS)              0.02879519 [mEh]       0.01806925 [kcal/mol]       0.07560176 [kJ/mol]

  Total HF                          1.28282276 [mEh]       0.80498344 [kcal/mol]       3.36805070 [kJ/mol]
  Total SAPT0                      -0.39506804 [mEh]      -0.24790894 [kcal/mol]      -1.03725100 [kJ/mol]

  Special recipe for scaled SAPT0 (see Manual):
    Electrostatics sSAPT0           0.56397152 [mEh]       0.35389747 [kcal/mol]       1.48070702 [kJ/mol]
    Exchange sSAPT0                 1.00604023 [mEh]       0.63129978 [kcal/mol]       2.64135826 [kJ/mol]
    Induction sSAPT0               -0.28684337 [mEh]      -0.17999693 [kcal/mol]      -0.75310716 [kJ/mol]
    Dispersion sSAPT0              -1.67765590 [mEh]      -1.05274497 [kcal/mol]      -4.40468495 [kJ/mol]
  Total sSAPT0                     -0.39448751 [mEh]      -0.24754465 [kcal/mol]      -1.03572682 [kJ/mol]
  --------------------------------------------------------------------------------------------------------

*** Psi4 exiting successfully. Buy a developer a beer!
