                               Psi4 1.4rc3

  ==> Input File <==

--------------------------------------------------------------------------
# PSI4 file produced by CrystaLattE

# Generated from:               imidazole.xyz
# Psithon input for N-mer:      2mer-0+3
# Number of atoms per monomer:  [9, 9]
# Number of replicas:           2
# COM priority:                 9.562895865798e-04
# Minimum COM separations:      5.371
# Separation priority:          5.459375908077e-03
# Minimum monomer separations:  3.005
# Cutoff priority:              9.612964353280e-04
# Nuclear repulsion energy:     456.3873777999613

memory 7 GB

molecule Dimer_0_3 {
  N           -4.29309621      -3.06837431       5.30516231
  N           -2.15847371      -2.92627296       1.72037448
  H           -0.02545587      -6.35903575       2.22046452
  H           -2.68566968      -6.53260241       6.61445954
  H           -4.74388423      -0.00609006       2.75615968
  H           -1.41045540      -2.24723147       0.00000000
  C           -1.43737991      -5.07504848       2.94065891
  C           -2.76900782      -5.14609916       5.13522880
  C           -3.85955036      -1.77728198       3.21093411
--
  N           -4.29309621       7.08172265       5.30516231
  N           -2.15847371       7.22382401       1.72037448
  H           -0.02545587       3.79106122       2.22046452
  H           -2.68566968       3.61749456       6.61445954
  H           -4.74388423      10.14400691       2.75615968
  H           -1.41045540       7.90286550       0.00000000
  C           -1.43737991       5.07504848       2.94065891
  C           -2.76900782       5.00399780       5.13522880
  C           -3.85955036       8.37281499       3.21093411
units = au
no_com
no_reorient
}

set {
  e_convergence 10
  d_convergence 10
  scf_type df
  mp2_type df
  cc_type df
  freeze_core true
}

energy('sapt0/aug-cc-pvdz')

--------------------------------------------------------------------------

  //              Dimer HF             //
    Molecular point group: c1
  Charge       = 0
  Multiplicity = 1
  Basis Set: AUG-CC-PVDZ
    Blend: AUG-CC-PVDZ
  Basis Set: (AUG-CC-PVDZ AUX)
    Blend: AUG-CC-PVDZ-JKFIT
  @DF-RHF Final Energy:  -449.68654770206547
    Total Energy =                       -449.6865477020654680
  //            Monomer A HF           //
    Molecular point group: c1
  Multiplicity = 1
  Basis Set: AUG-CC-PVDZ
    Blend: AUG-CC-PVDZ
  Basis Set: (AUG-CC-PVDZ AUX)
    Blend: AUG-CC-PVDZ-JKFIT
  @DF-RHF Final Energy:  -224.84385590089732
    Total Energy =                       -224.8438559008973243
  //            Monomer B HF           //
    Molecular point group: c1

    Geometry (in Bohr), charge = 0, multiplicity = 1:

       Center              X                  Y                   Z               Mass
    ------------   -----------------  -----------------  -----------------  -----------------
      Gh(N)          -4.293096210000    -3.068374310000     5.305162310000    14.003074004430
      Gh(N)          -2.158473710000    -2.926272960000     1.720374480000    14.003074004430
      Gh(H)          -0.025455870000    -6.359035750000     2.220464520000     1.007825032230
      Gh(H)          -2.685669680000    -6.532602410000     6.614459540000     1.007825032230
      Gh(H)          -4.743884230000    -0.006090060000     2.756159680000     1.007825032230
      Gh(H)          -1.410455400000    -2.247231470000     0.000000000000     1.007825032230
      Gh(C)          -1.437379910000    -5.075048480000     2.940658910000    12.000000000000
      Gh(C)          -2.769007820000    -5.146099160000     5.135228800000    12.000000000000
      Gh(C)          -3.859550360000    -1.777281980000     3.210934110000    12.000000000000
         N           -4.293096210000     7.081722650000     5.305162310000    14.003074004430
         N           -2.158473710000     7.223824010000     1.720374480000    14.003074004430
         H           -0.025455870000     3.791061220000     2.220464520000     1.007825032230
         H           -2.685669680000     3.617494560000     6.614459540000     1.007825032230
         H           -4.743884230000    10.144006910000     2.756159680000     1.007825032230
         H           -1.410455400000     7.902865500000     0.000000000000     1.007825032230
         C           -1.437379910000     5.075048480000     2.940658910000    12.000000000000
         C           -2.769007820000     5.003997800000     5.135228800000    12.000000000000
         C           -3.859550360000     8.372814990000     3.210934110000    12.000000000000

  Charge       = 0
  Multiplicity = 1
  Basis Set: AUG-CC-PVDZ
    Blend: AUG-CC-PVDZ
  Basis Set: (AUG-CC-PVDZ AUX)
    Blend: AUG-CC-PVDZ-JKFIT

    Orbital Energies [Eh]
    ---------------------

    Doubly Occupied:

       1A    -15.637066     2A    -15.551205     3A    -11.300880
       4A    -11.263115     5A    -11.245618     6A     -1.352817
       7A     -1.169050     8A     -1.012038     9A     -0.824339
      10A     -0.803671    11A     -0.760623    12A     -0.610038
      13A     -0.603953    14A     -0.601862    15A     -0.570887
      16A     -0.435442    17A     -0.400439    18A     -0.320670

  @DF-RHF Final Energy:  -224.84396580148041

   => Energetics <=

    Nuclear Repulsion Energy =            164.0866958726849703
    One-Electron Energy =                -628.9339001575972361
    Two-Electron Energy =                 240.0032384834318577
    Total Energy =                       -224.8439658014804081

  Dipole Moment: [D]
     X:     2.0415      Y:     0.4154      Z:    -3.3867     Total:     3.9762

    SAPT Results
  --------------------------------------------------------------------------------------------------------
    Electrostatics                 -0.83622734 [mEh]      -0.52474058 [kcal/mol]      -2.19551458 [kJ/mol]
      Elst10,r                     -0.83622734 [mEh]      -0.52474058 [kcal/mol]      -2.19551458 [kJ/mol]

    Exchange                        2.61493341 [mEh]       1.64089549 [kcal/mol]       6.86550672 [kJ/mol]
      Exch10                        2.61493341 [mEh]       1.64089549 [kcal/mol]       6.86550672 [kJ/mol]
      Exch10(S^2)                   2.60867810 [mEh]       1.63697022 [kcal/mol]       6.84908340 [kJ/mol]

    Induction                      -0.50470576 [mEh]      -0.31670764 [kcal/mol]      -1.32510478 [kJ/mol]
      Ind20,r                      -1.19650935 [mEh]      -0.75082095 [kcal/mol]      -3.14143486 [kJ/mol]
      Exch-Ind20,r                  0.94300174 [mEh]       0.59174252 [kcal/mol]       2.47585072 [kJ/mol]
      delta HF,r (2)               -0.25119815 [mEh]      -0.15762922 [kcal/mol]      -0.65952064 [kJ/mol]

    Dispersion                     -3.01186441 [mEh]      -1.88997345 [kcal/mol]      -7.90764892 [kJ/mol]
      Disp20                       -3.33656843 [mEh]      -2.09372830 [kcal/mol]      -8.76015921 [kJ/mol]
      Exch-Disp20                   0.32470402 [mEh]       0.20375485 [kcal/mol]       0.85251029 [kJ/mol]
      Disp20 (SS)                  -1.66828422 [mEh]      -1.04686415 [kcal/mol]      -4.38007961 [kJ/mol]
      Disp20 (OS)                  -1.66828422 [mEh]      -1.04686415 [kcal/mol]      -4.38007961 [kJ/mol]
      Exch-Disp20 (SS)              0.21104289 [mEh]       0.13243141 [kcal/mol]       0.55409304 [kJ/mol]
      Exch-Disp20 (OS)              0.11366113 [mEh]       0.07132344 [kcal/mol]       0.29841725 [kJ/mol]

  Total HF                          1.27400031 [mEh]       0.79944727 [kcal/mol]       3.34488736 [kJ/mol]
  Total SAPT0                      -1.73786410 [mEh]      -1.09052619 [kcal/mol]      -4.56276156 [kJ/mol]

  Special recipe for scaled SAPT0 (see Manual):
    Electrostatics sSAPT0          -0.83622734 [mEh]      -0.52474058 [kcal/mol]      -2.19551458 [kJ/mol]
    Exchange sSAPT0                 2.61493341 [mEh]       1.64089549 [kcal/mol]       6.86550672 [kJ/mol]
    Induction sSAPT0               -0.49790585 [mEh]      -0.31244064 [kcal/mol]      -1.30725162 [kJ/mol]
    Dispersion sSAPT0              -3.00952300 [mEh]      -1.88850419 [kcal/mol]      -7.90150154 [kJ/mol]
  Total sSAPT0                     -1.72872277 [mEh]      -1.08478992 [kcal/mol]      -4.53876102 [kJ/mol]
  --------------------------------------------------------------------------------------------------------

*** Psi4 exiting successfully. Buy a developer a beer!
