                               Psi4 1.4rc3

  ==> Input File <==

--------------------------------------------------------------------------
# PSI4 file produced by CrystaLattE

# Generated from:               imidazole.xyz
# Psithon input for N-mer:      2mer-0+348
# Number of atoms per monomer:  [9, 9]
# Number of replicas:           1
# COM priority:                 2.330812480116e-05
# Minimum COM separations:      18.525
# Separation priority:          4.669124403355e-05
# Minimum monomer separations:  14.696
# Cutoff priority:              1.681307926562e-06
# Nuclear repulsion energy:     365.31744707209464

memory 7 GB

molecule Dimer_0_348 {
  N           -4.29309621      -3.06837431       5.30516231
  N           -2.15847371      -2.92627296       1.72037448
  H           -0.02545587      -6.35903575       2.22046452
  H           -2.68566968      -6.53260241       6.61445954
  H           -4.74388423      -0.00609006       2.75615968
  H           -1.41045540      -2.24723147       0.00000000
  C           -1.43737991      -5.07504848       2.94065891
  C           -2.76900782      -5.14609916       5.13522880
  C           -3.85955036      -1.77728198       3.21093411
--
  N            9.59848081     -36.62865492      -4.69340168
  N            7.46385831     -36.77075628      -1.10861384
  H            5.33084047     -33.33799348      -1.60870389
  H            7.99105428     -33.16442682      -6.00269891
  H           10.04926883     -39.69093917      -2.14439904
  H            6.71584001     -37.44979776       0.61176063
  C            6.74276451     -34.62198075      -2.32889828
  C            8.07439242     -34.55093007      -4.52346817
  C            9.16493496     -37.91974725      -2.59917348
units = au
no_com
no_reorient
}

set {
  e_convergence 10
  d_convergence 10
  scf_type df
  mp2_type df
  cc_type df
  freeze_core true
}

energy('sapt0/aug-cc-pvdz')

--------------------------------------------------------------------------

  //              Dimer HF             //
    Molecular point group: c1
  Charge       = 0
  Multiplicity = 1
  Basis Set: AUG-CC-PVDZ
    Blend: AUG-CC-PVDZ
  Basis Set: (AUG-CC-PVDZ AUX)
    Blend: AUG-CC-PVDZ-JKFIT
  @DF-RHF Final Energy:  -449.68742755854169
    Total Energy =                       -449.6874275585416854
  //            Monomer A HF           //
    Molecular point group: c1
  Multiplicity = 1
  Basis Set: AUG-CC-PVDZ
    Blend: AUG-CC-PVDZ
  Basis Set: (AUG-CC-PVDZ AUX)
    Blend: AUG-CC-PVDZ-JKFIT
  @DF-RHF Final Energy:  -224.84369627800129
    Total Energy =                       -224.8436962780012891
  //            Monomer B HF           //
    Molecular point group: c1

    Geometry (in Bohr), charge = 0, multiplicity = 1:

       Center              X                  Y                   Z               Mass
    ------------   -----------------  -----------------  -----------------  -----------------
      Gh(N)          -4.293096210000    -3.068374310000     5.305162310000    14.003074004430
      Gh(N)          -2.158473710000    -2.926272960000     1.720374480000    14.003074004430
      Gh(H)          -0.025455870000    -6.359035750000     2.220464520000     1.007825032230
      Gh(H)          -2.685669680000    -6.532602410000     6.614459540000     1.007825032230
      Gh(H)          -4.743884230000    -0.006090060000     2.756159680000     1.007825032230
      Gh(H)          -1.410455400000    -2.247231470000     0.000000000000     1.007825032230
      Gh(C)          -1.437379910000    -5.075048480000     2.940658910000    12.000000000000
      Gh(C)          -2.769007820000    -5.146099160000     5.135228800000    12.000000000000
      Gh(C)          -3.859550360000    -1.777281980000     3.210934110000    12.000000000000
         N            9.598480810000   -36.628654920000    -4.693401680000    14.003074004430
         N            7.463858310000   -36.770756280000    -1.108613840000    14.003074004430
         H            5.330840470000   -33.337993480000    -1.608703890000     1.007825032230
         H            7.991054280000   -33.164426820000    -6.002698910000     1.007825032230
         H           10.049268830000   -39.690939170000    -2.144399040000     1.007825032230
         H            6.715840010000   -37.449797760000     0.611760630000     1.007825032230
         C            6.742764510000   -34.621980750000    -2.328898280000    12.000000000000
         C            8.074392420000   -34.550930070000    -4.523468170000    12.000000000000
         C            9.164934960000   -37.919747250000    -2.599173480000    12.000000000000

  Charge       = 0
  Multiplicity = 1
  Basis Set: AUG-CC-PVDZ
    Blend: AUG-CC-PVDZ
  Basis Set: (AUG-CC-PVDZ AUX)
    Blend: AUG-CC-PVDZ-JKFIT

    Orbital Energies [Eh]
    ---------------------

    Doubly Occupied:

       1A    -15.637071     2A    -15.551216     3A    -11.300916
       4A    -11.263160     5A    -11.245653     6A     -1.352867
       7A     -1.169098     8A     -1.012098     9A     -0.824390
      10A     -0.803731    11A     -0.760666    12A     -0.610096
      13A     -0.603958    14A     -0.601922    15A     -0.570942
      16A     -0.435483    17A     -0.400464    18A     -0.320685

  @DF-RHF Final Energy:  -224.84369627946910

   => Energetics <=

    Nuclear Repulsion Energy =            164.0866958647205820
    One-Electron Energy =                -628.9319560434674941
    Two-Electron Energy =                 240.0015638992778122
    Total Energy =                       -224.8436962794690999

  Dipole Moment: [D]
     X:    -2.0431      Y:    -0.4150      Z:     3.3867     Total:     3.9769

    SAPT Results
  --------------------------------------------------------------------------------------------------------
    Electrostatics                 -0.03493534 [mEh]      -0.02192226 [kcal/mol]      -0.09172273 [kJ/mol]
      Elst10,r                     -0.03493534 [mEh]      -0.02192226 [kcal/mol]      -0.09172273 [kJ/mol]

    Exchange                        0.00000000 [mEh]       0.00000000 [kcal/mol]       0.00000000 [kJ/mol]
      Exch10                        0.00000000 [mEh]       0.00000000 [kcal/mol]       0.00000000 [kJ/mol]
      Exch10(S^2)                   0.00000000 [mEh]       0.00000000 [kcal/mol]       0.00000000 [kJ/mol]

    Induction                      -0.00006573 [mEh]      -0.00004125 [kcal/mol]      -0.00017257 [kJ/mol]
      Ind20,r                      -0.00007106 [mEh]      -0.00004459 [kcal/mol]      -0.00018656 [kJ/mol]
      Exch-Ind20,r                  0.00000000 [mEh]       0.00000000 [kcal/mol]       0.00000000 [kJ/mol]
      delta HF,r (2)                0.00000533 [mEh]       0.00000334 [kcal/mol]       0.00001399 [kJ/mol]

    Dispersion                     -0.00079312 [mEh]      -0.00049769 [kcal/mol]      -0.00208235 [kJ/mol]
      Disp20                       -0.00079312 [mEh]      -0.00049769 [kcal/mol]      -0.00208235 [kJ/mol]
      Exch-Disp20                   0.00000000 [mEh]       0.00000000 [kcal/mol]       0.00000000 [kJ/mol]
      Disp20 (SS)                  -0.00039656 [mEh]      -0.00024885 [kcal/mol]      -0.00104117 [kJ/mol]
      Disp20 (OS)                  -0.00039656 [mEh]      -0.00024885 [kcal/mol]      -0.00104117 [kJ/mol]
      Exch-Disp20 (SS)              0.00000000 [mEh]       0.00000000 [kcal/mol]       0.00000000 [kJ/mol]
      Exch-Disp20 (OS)              0.00000000 [mEh]       0.00000000 [kcal/mol]       0.00000000 [kJ/mol]

  Total HF                         -0.03500107 [mEh]      -0.02196350 [kcal/mol]      -0.09189530 [kJ/mol]
  Total SAPT0                      -0.03579419 [mEh]      -0.02246120 [kcal/mol]      -0.09397765 [kJ/mol]

  Special recipe for scaled SAPT0 (see Manual):
    Electrostatics sSAPT0          -0.03493534 [mEh]      -0.02192226 [kcal/mol]      -0.09172273 [kJ/mol]
    Exchange sSAPT0                 0.00000000 [mEh]       0.00000000 [kcal/mol]       0.00000000 [kJ/mol]
    Induction sSAPT0               -0.00006573 [mEh]      -0.00004125 [kcal/mol]      -0.00017257 [kJ/mol]
    Dispersion sSAPT0              -0.00079312 [mEh]      -0.00049769 [kcal/mol]      -0.00208235 [kJ/mol]
  Total sSAPT0                     -0.03579419 [mEh]      -0.02246120 [kcal/mol]      -0.09397765 [kJ/mol]
  --------------------------------------------------------------------------------------------------------

*** Psi4 exiting successfully. Buy a developer a beer!
