                               Psi4 1.4rc3

  ==> Input File <==

--------------------------------------------------------------------------
# PSI4 file produced by CrystaLattE

# Generated from:               imidazole.xyz
# Psithon input for N-mer:      2mer-0+616
# Number of atoms per monomer:  [9, 9]
# Number of replicas:           2
# COM priority:                 1.272341441055e-05
# Minimum COM separations:      22.667
# Separation priority:          2.156139218059e-05
# Minimum monomer separations:  19.013
# Cutoff priority:              6.001167270912e-07
# Nuclear repulsion energy:     358.4565721019676

memory 7 GB

molecule Dimer_0_616 {
  N           -4.29309621      -3.06837431       5.30516231
  N           -2.15847371      -2.92627296       1.72037448
  H           -0.02545587      -6.35903575       2.22046452
  H           -2.68566968      -6.53260241       6.61445954
  H           -4.74388423      -0.00609006       2.75615968
  H           -1.41045540      -2.24723147       0.00000000
  C           -1.43737991      -5.07504848       2.94065891
  C           -2.76900782      -5.14609916       5.13522880
  C           -3.85955036      -1.77728198       3.21093411
--
  N           14.51737116     -41.70370340      -2.78690955
  N           16.65199366     -41.84580476      -6.37169738
  H           18.78501151     -38.41304196      -5.87160734
  H           16.12479769     -38.23947531      -1.47761232
  H           14.06658315     -44.76598765      -5.33591219
  H           17.40001197     -42.52484624      -8.09207186
  C           17.37308746     -39.69702923      -5.15141295
  C           16.04145955     -39.62597855      -2.95684306
  C           14.95091701     -42.99479573      -4.88113775
units = au
no_com
no_reorient
}

set {
  e_convergence 10
  d_convergence 10
  scf_type df
  mp2_type df
  cc_type df
  freeze_core true
}

energy('sapt0/aug-cc-pvdz')

--------------------------------------------------------------------------

  //              Dimer HF             //
    Molecular point group: c1
  Charge       = 0
  Multiplicity = 1
  Basis Set: AUG-CC-PVDZ
    Blend: AUG-CC-PVDZ
  Basis Set: (AUG-CC-PVDZ AUX)
    Blend: AUG-CC-PVDZ-JKFIT
  @DF-RHF Final Energy:  -449.68737942651148
    Total Energy =                       -449.6873794265114839
  //            Monomer A HF           //
    Molecular point group: c1
  Multiplicity = 1
  Basis Set: AUG-CC-PVDZ
    Blend: AUG-CC-PVDZ
  Basis Set: (AUG-CC-PVDZ AUX)
    Blend: AUG-CC-PVDZ-JKFIT
  @DF-RHF Final Energy:  -224.84369627789198
    Total Energy =                       -224.8436962778919792
  //            Monomer B HF           //
    Molecular point group: c1

    Geometry (in Bohr), charge = 0, multiplicity = 1:

       Center              X                  Y                   Z               Mass
    ------------   -----------------  -----------------  -----------------  -----------------
      Gh(N)          -4.293096210000    -3.068374310000     5.305162310000    14.003074004430
      Gh(N)          -2.158473710000    -2.926272960000     1.720374480000    14.003074004430
      Gh(H)          -0.025455870000    -6.359035750000     2.220464520000     1.007825032230
      Gh(H)          -2.685669680000    -6.532602410000     6.614459540000     1.007825032230
      Gh(H)          -4.743884230000    -0.006090060000     2.756159680000     1.007825032230
      Gh(H)          -1.410455400000    -2.247231470000     0.000000000000     1.007825032230
      Gh(C)          -1.437379910000    -5.075048480000     2.940658910000    12.000000000000
      Gh(C)          -2.769007820000    -5.146099160000     5.135228800000    12.000000000000
      Gh(C)          -3.859550360000    -1.777281980000     3.210934110000    12.000000000000
         N           14.517371160000   -41.703703400000    -2.786909550000    14.003074004430
         N           16.651993660000   -41.845804760000    -6.371697380000    14.003074004430
         H           18.785011510000   -38.413041960000    -5.871607340000     1.007825032230
         H           16.124797690000   -38.239475310000    -1.477612320000     1.007825032230
         H           14.066583150000   -44.765987650000    -5.335912190000     1.007825032230
         H           17.400011970000   -42.524846240000    -8.092071860000     1.007825032230
         C           17.373087460000   -39.697029230000    -5.151412950000    12.000000000000
         C           16.041459550000   -39.625978550000    -2.956843060000    12.000000000000
         C           14.950917010000   -42.994795730000    -4.881137750000    12.000000000000

  Charge       = 0
  Multiplicity = 1
  Basis Set: AUG-CC-PVDZ
    Blend: AUG-CC-PVDZ
  Basis Set: (AUG-CC-PVDZ AUX)
    Blend: AUG-CC-PVDZ-JKFIT

    Orbital Energies [Eh]
    ---------------------

    Doubly Occupied:

       1A    -15.637071     2A    -15.551216     3A    -11.300916
       4A    -11.263160     5A    -11.245653     6A     -1.352867
       7A     -1.169098     8A     -1.012098     9A     -0.824390
      10A     -0.803731    11A     -0.760666    12A     -0.610096
      13A     -0.603958    14A     -0.601922    15A     -0.570942
      16A     -0.435483    17A     -0.400464    18A     -0.320685

  @DF-RHF Final Energy:  -224.84369627786742

   => Energetics <=

    Nuclear Repulsion Energy =            164.0866959673596170
    One-Electron Energy =                -628.9319562442630058
    Two-Electron Energy =                 240.0015639990359659
    Total Energy =                       -224.8436962778674229

  Dipole Moment: [D]
     X:     2.0431      Y:    -0.4150      Z:    -3.3867     Total:     3.9769

    SAPT Results
  --------------------------------------------------------------------------------------------------------
    Electrostatics                  0.01314562 [mEh]       0.00824900 [kcal/mol]       0.03451382 [kJ/mol]
      Elst10,r                      0.01314562 [mEh]       0.00824900 [kcal/mol]       0.03451382 [kJ/mol]

    Exchange                        0.00000000 [mEh]       0.00000000 [kcal/mol]       0.00000000 [kJ/mol]
      Exch10                        0.00000000 [mEh]       0.00000000 [kcal/mol]       0.00000000 [kJ/mol]
      Exch10(S^2)                   0.00000000 [mEh]       0.00000000 [kcal/mol]       0.00000000 [kJ/mol]

    Induction                      -0.00001637 [mEh]      -0.00001027 [kcal/mol]      -0.00004298 [kJ/mol]
      Ind20,r                      -0.00002609 [mEh]      -0.00001637 [kcal/mol]      -0.00006849 [kJ/mol]
      Exch-Ind20,r                  0.00000000 [mEh]       0.00000000 [kcal/mol]       0.00000000 [kJ/mol]
      delta HF,r (2)                0.00000972 [mEh]       0.00000610 [kcal/mol]       0.00002551 [kJ/mol]

    Dispersion                     -0.00021782 [mEh]      -0.00013668 [kcal/mol]      -0.00057189 [kJ/mol]
      Disp20                       -0.00021782 [mEh]      -0.00013668 [kcal/mol]      -0.00057189 [kJ/mol]
      Exch-Disp20                   0.00000000 [mEh]       0.00000000 [kcal/mol]       0.00000000 [kJ/mol]
      Disp20 (SS)                  -0.00010891 [mEh]      -0.00006834 [kcal/mol]      -0.00028594 [kJ/mol]
      Disp20 (OS)                  -0.00010891 [mEh]      -0.00006834 [kcal/mol]      -0.00028594 [kJ/mol]
      Exch-Disp20 (SS)              0.00000000 [mEh]       0.00000000 [kcal/mol]       0.00000000 [kJ/mol]
      Exch-Disp20 (OS)              0.00000000 [mEh]       0.00000000 [kcal/mol]       0.00000000 [kJ/mol]

  Total HF                          0.01312925 [mEh]       0.00823873 [kcal/mol]       0.03447084 [kJ/mol]
  Total SAPT0                       0.01291143 [mEh]       0.00810204 [kcal/mol]       0.03389895 [kJ/mol]

  Special recipe for scaled SAPT0 (see Manual):
    Electrostatics sSAPT0           0.01314562 [mEh]       0.00824900 [kcal/mol]       0.03451382 [kJ/mol]
    Exchange sSAPT0                 0.00000000 [mEh]       0.00000000 [kcal/mol]       0.00000000 [kJ/mol]
    Induction sSAPT0               -0.00001637 [mEh]      -0.00001027 [kcal/mol]      -0.00004298 [kJ/mol]
    Dispersion sSAPT0              -0.00021782 [mEh]      -0.00013668 [kcal/mol]      -0.00057189 [kJ/mol]
  Total sSAPT0                      0.01291143 [mEh]       0.00810204 [kcal/mol]       0.03389895 [kJ/mol]
  --------------------------------------------------------------------------------------------------------

*** Psi4 exiting successfully. Buy a developer a beer!
