                               Psi4 1.4rc3

  ==> Input File <==

--------------------------------------------------------------------------
# PSI4 file produced by CrystaLattE

# Generated from:               imidazole.xyz
# Psithon input for N-mer:      2mer-0+34
# Number of atoms per monomer:  [9, 9]
# Number of replicas:           2
# COM priority:                 1.984237275661e-04
# Minimum COM separations:      9.073
# Separation priority:          8.322436384399e-04
# Minimum monomer separations:  5.626
# Cutoff priority:              7.828297325923e-05
# Nuclear repulsion energy:     403.7283111645363

memory 7 GB

molecule Dimer_0_34 {
  N           -4.29309621      -3.06837431       5.30516231
  N           -2.15847371      -2.92627296       1.72037448
  H           -0.02545587      -6.35903575       2.22046452
  H           -2.68566968      -6.53260241       6.61445954
  H           -4.74388423      -0.00609006       2.75615968
  H           -1.41045540      -2.24723147       0.00000000
  C           -1.43737991      -5.07504848       2.94065891
  C           -2.76900782      -5.14609916       5.13522880
  C           -3.85955036      -1.77728198       3.21093411
--
  N           -9.21198656      12.15677114       3.39867018
  N          -11.34660906      12.29887249       6.98345802
  H          -13.47962690       8.86610970       6.48336797
  H          -10.81941309       8.69254304       2.08937295
  H           -8.76119855      15.21905539       5.94767282
  H          -12.09462737      12.97791398       8.70383249
  C          -12.06770286      10.15009697       5.76317358
  C          -10.73607495      10.07904629       3.56860369
  C           -9.64553241      13.44786347       5.49289838
units = au
no_com
no_reorient
}

set {
  e_convergence 10
  d_convergence 10
  scf_type df
  mp2_type df
  cc_type df
  freeze_core true
}

energy('sapt0/aug-cc-pvdz')

--------------------------------------------------------------------------

  //              Dimer HF             //
    Molecular point group: c1
  Charge       = 0
  Multiplicity = 1
  Basis Set: AUG-CC-PVDZ
    Blend: AUG-CC-PVDZ
  Basis Set: (AUG-CC-PVDZ AUX)
    Blend: AUG-CC-PVDZ-JKFIT
  @DF-RHF Final Energy:  -449.68780121017193
    Total Energy =                       -449.6878012101719833
  //            Monomer A HF           //
    Molecular point group: c1
  Multiplicity = 1
  Basis Set: AUG-CC-PVDZ
    Blend: AUG-CC-PVDZ
  Basis Set: (AUG-CC-PVDZ AUX)
    Blend: AUG-CC-PVDZ-JKFIT
  @DF-RHF Final Energy:  -224.84370571924657
    Total Energy =                       -224.8437057192465716
  //            Monomer B HF           //
    Molecular point group: c1

    Geometry (in Bohr), charge = 0, multiplicity = 1:

       Center              X                  Y                   Z               Mass
    ------------   -----------------  -----------------  -----------------  -----------------
      Gh(N)          -4.293096210000    -3.068374310000     5.305162310000    14.003074004430
      Gh(N)          -2.158473710000    -2.926272960000     1.720374480000    14.003074004430
      Gh(H)          -0.025455870000    -6.359035750000     2.220464520000     1.007825032230
      Gh(H)          -2.685669680000    -6.532602410000     6.614459540000     1.007825032230
      Gh(H)          -4.743884230000    -0.006090060000     2.756159680000     1.007825032230
      Gh(H)          -1.410455400000    -2.247231470000     0.000000000000     1.007825032230
      Gh(C)          -1.437379910000    -5.075048480000     2.940658910000    12.000000000000
      Gh(C)          -2.769007820000    -5.146099160000     5.135228800000    12.000000000000
      Gh(C)          -3.859550360000    -1.777281980000     3.210934110000    12.000000000000
         N           -9.211986560000    12.156771140000     3.398670180000    14.003074004430
         N          -11.346609060000    12.298872490000     6.983458020000    14.003074004430
         H          -13.479626900000     8.866109700000     6.483367970000     1.007825032230
         H          -10.819413090000     8.692543040000     2.089372950000     1.007825032230
         H           -8.761198550000    15.219055390000     5.947672820000     1.007825032230
         H          -12.094627370000    12.977913980000     8.703832490000     1.007825032230
         C          -12.067702860000    10.150096970000     5.763173580000    12.000000000000
         C          -10.736074950000    10.079046290000     3.568603690000    12.000000000000
         C           -9.645532410000    13.447863470000     5.492898380000    12.000000000000

  Charge       = 0
  Multiplicity = 1
  Basis Set: AUG-CC-PVDZ
    Blend: AUG-CC-PVDZ
  Basis Set: (AUG-CC-PVDZ AUX)
    Blend: AUG-CC-PVDZ-JKFIT

    Orbital Energies [Eh]
    ---------------------

    Doubly Occupied:

       1A    -15.637079     2A    -15.551222     3A    -11.300922
       4A    -11.263168     5A    -11.245657     6A     -1.352876
       7A     -1.169107     8A     -1.012107     9A     -0.824397
      10A     -0.803740    11A     -0.760676    12A     -0.610104
      13A     -0.603963    14A     -0.601932    15A     -0.570952
      16A     -0.435489    17A     -0.400471    18A     -0.320690

  @DF-RHF Final Energy:  -224.84371087195913

   => Energetics <=

    Nuclear Repulsion Energy =            164.0866958991328204
    One-Electron Energy =                -628.9317076682871175
    Two-Electron Energy =                 240.0013008971951933
    Total Energy =                       -224.8437108719591322

  Dipole Moment: [D]
     X:    -2.0430      Y:     0.4139      Z:     3.3869     Total:     3.9770

    SAPT Results
  --------------------------------------------------------------------------------------------------------
    Electrostatics                 -0.37632538 [mEh]      -0.23614774 [kcal/mol]      -0.98804215 [kJ/mol]
      Elst10,r                     -0.37632538 [mEh]      -0.23614774 [kcal/mol]      -0.98804215 [kJ/mol]

    Exchange                        0.00004729 [mEh]       0.00002967 [kcal/mol]       0.00012416 [kJ/mol]
      Exch10                        0.00004729 [mEh]       0.00002967 [kcal/mol]       0.00012416 [kJ/mol]
      Exch10(S^2)                   0.00004729 [mEh]       0.00002967 [kcal/mol]       0.00012416 [kJ/mol]

    Induction                      -0.00834087 [mEh]      -0.00523398 [kcal/mol]      -0.02189896 [kJ/mol]
      Ind20,r                      -0.00835409 [mEh]      -0.00524227 [kcal/mol]      -0.02193366 [kJ/mol]
      Exch-Ind20,r                  0.00002239 [mEh]       0.00001405 [kcal/mol]       0.00005878 [kJ/mol]
      delta HF,r (2)               -0.00000917 [mEh]      -0.00000576 [kcal/mol]      -0.00002408 [kJ/mol]

    Dispersion                     -0.06738045 [mEh]      -0.04228187 [kcal/mol]      -0.17690735 [kJ/mol]
      Disp20                       -0.06739141 [mEh]      -0.04228875 [kcal/mol]      -0.17693612 [kJ/mol]
      Exch-Disp20                   0.00001096 [mEh]       0.00000688 [kcal/mol]       0.00002877 [kJ/mol]
      Disp20 (SS)                  -0.03369570 [mEh]      -0.02114437 [kcal/mol]      -0.08846806 [kJ/mol]
      Disp20 (OS)                  -0.03369570 [mEh]      -0.02114437 [kcal/mol]      -0.08846806 [kJ/mol]
      Exch-Disp20 (SS)              0.00000815 [mEh]       0.00000512 [kcal/mol]       0.00002140 [kJ/mol]
      Exch-Disp20 (OS)              0.00000281 [mEh]       0.00000176 [kcal/mol]       0.00000737 [kJ/mol]

  Total HF                         -0.38461897 [mEh]      -0.24135205 [kcal/mol]      -1.00981696 [kJ/mol]
  Total SAPT0                      -0.45199942 [mEh]      -0.28363392 [kcal/mol]      -1.18672431 [kJ/mol]

  Special recipe for scaled SAPT0 (see Manual):
    Electrostatics sSAPT0          -0.37632538 [mEh]      -0.23614774 [kcal/mol]      -0.98804215 [kJ/mol]
    Exchange sSAPT0                 0.00004729 [mEh]       0.00002967 [kcal/mol]       0.00012416 [kJ/mol]
    Induction sSAPT0               -0.00834087 [mEh]      -0.00523398 [kcal/mol]      -0.02189896 [kJ/mol]
    Dispersion sSAPT0              -0.06738045 [mEh]      -0.04228187 [kcal/mol]      -0.17690735 [kJ/mol]
  Total sSAPT0                     -0.45199942 [mEh]      -0.28363392 [kcal/mol]      -1.18672431 [kJ/mol]
  --------------------------------------------------------------------------------------------------------

*** Psi4 exiting successfully. Buy a developer a beer!
