                               Psi4 1.4.1 release

  ==> Input File <==

--------------------------------------------------------------------------
# PSI4 file produced by CrystaLattE

# Generated from:               pyrazine.xyz
# Psithon input for N-mer:      2mer-0+110
# Number of atoms per monomer:  [10, 10]
# Number of replicas:           8
# COM priority:                 4.007303351309e-05
# Minimum COM separations:      15.464
# Separation priority:          9.892688534542e-05
# Minimum monomer separations:  11.442
# Cutoff priority:              4.575295139014e-06
# Nuclear repulsion energy:     485.6253237237522

memory 7 GB

molecule Dimer_0_110 {
  N           -1.33084758       0.98032658       0.42627037
  N            3.95377333       0.98032658       0.42627037
  H            3.56713674       4.35218569      -0.94230973
  H           -0.94421098       4.35218569      -0.94230973
  H           -0.94421098      -2.39153253       1.79485047
  H            3.56713674      -2.39153253       1.79485047
  C            2.62292576       2.94097974      -0.42627037
  C            0.00000000       2.94097974      -0.42627037
  C            0.00000000      -0.98032658       1.27881112
  C            2.62292576      -0.98032658       1.27881112
--
  N          -10.14207358     -26.65786287      -3.10099793
  N           -4.85745267     -26.65786287      -3.10099793
  H           -9.75543698     -30.02972198      -4.46957803
  H           -9.75543698     -23.28600376      -1.73241783
  H           -5.24408927     -30.02972198      -4.46957803
  H           -5.24408927     -23.28600376      -1.73241783
  C           -8.81122601     -28.61851603      -3.95353867
  C           -8.81122601     -24.69720971      -2.24845718
  C           -6.18830025     -28.61851603      -3.95353867
  C           -6.18830025     -24.69720971      -2.24845718
units = au
no_com
no_reorient
}

set {
  e_convergence 10
  d_convergence 10
  scf_type df
  mp2_type df
  cc_type df
  freeze_core true
}

energy('sapt0/aug-cc-pvdz')

--------------------------------------------------------------------------

  //              Dimer HF             //
    Molecular point group: c1
  Charge       = 0
  Multiplicity = 1
  Basis Set: AUG-CC-PVDZ
    Blend: AUG-CC-PVDZ
  Basis Set: (AUG-CC-PVDZ AUX)
    Blend: AUG-CC-PVDZ-JKFIT
  @DF-RHF Final Energy:  -525.27987957226014
    Total Energy =                       -525.2798795722601426
  //            Monomer A HF           //
    Molecular point group: c1
  Multiplicity = 1
  Basis Set: AUG-CC-PVDZ
    Blend: AUG-CC-PVDZ
  Basis Set: (AUG-CC-PVDZ AUX)
    Blend: AUG-CC-PVDZ-JKFIT
  @DF-RHF Final Energy:  -262.63994495263421
    Total Energy =                       -262.6399449526342096
  //            Monomer B HF           //
    Molecular point group: c1

    Geometry (in Bohr), charge = 0, multiplicity = 1:

       Center              X                  Y                   Z               Mass
    ------------   -----------------  -----------------  -----------------  -----------------
      Gh(N)          -1.330847580000     0.980326580000     0.426270370000    14.003074004430
      Gh(N)           3.953773330000     0.980326580000     0.426270370000    14.003074004430
      Gh(H)           3.567136740000     4.352185690000    -0.942309730000     1.007825032230
      Gh(H)          -0.944210980000     4.352185690000    -0.942309730000     1.007825032230
      Gh(H)          -0.944210980000    -2.391532530000     1.794850470000     1.007825032230
      Gh(H)           3.567136740000    -2.391532530000     1.794850470000     1.007825032230
      Gh(C)           2.622925760000     2.940979740000    -0.426270370000    12.000000000000
      Gh(C)           0.000000000000     2.940979740000    -0.426270370000    12.000000000000
      Gh(C)           0.000000000000    -0.980326580000     1.278811120000    12.000000000000
      Gh(C)           2.622925760000    -0.980326580000     1.278811120000    12.000000000000
         N          -10.142073580000   -26.657862870000    -3.100997930000    14.003074004430
         N           -4.857452670000   -26.657862870000    -3.100997930000    14.003074004430
         H           -9.755436980000   -30.029721980000    -4.469578030000     1.007825032230
         H           -9.755436980000   -23.286003760000    -1.732417830000     1.007825032230
         H           -5.244089270000   -30.029721980000    -4.469578030000     1.007825032230
         H           -5.244089270000   -23.286003760000    -1.732417830000     1.007825032230
         C           -8.811226010000   -28.618516030000    -3.953538670000    12.000000000000
         C           -8.811226010000   -24.697209710000    -2.248457180000    12.000000000000
         C           -6.188300250000   -28.618516030000    -3.953538670000    12.000000000000
         C           -6.188300250000   -24.697209710000    -2.248457180000    12.000000000000

  Charge       = 0
  Multiplicity = 1
  Basis Set: AUG-CC-PVDZ
    Blend: AUG-CC-PVDZ
  Basis Set: (AUG-CC-PVDZ AUX)
    Blend: AUG-CC-PVDZ-JKFIT

    Orbital Energies [Eh]
    ---------------------

    Doubly Occupied:

       1A    -15.598072     2A    -15.598053     3A    -11.274239
       4A    -11.274194     5A    -11.272975     6A    -11.272969
       7A     -1.313347     8A     -1.224176     9A     -1.076803
      10A     -0.922662    11A     -0.919282    12A     -0.760637
      13A     -0.738402    14A     -0.706214    15A     -0.647687
      16A     -0.580711    17A     -0.574369    18A     -0.497113
      19A     -0.434288    20A     -0.415855    21A     -0.359924

  @DF-RHF Final Energy:  -262.63994494650132

   => Energetics <=

    Nuclear Repulsion Energy =            212.5517311431129315
    One-Electron Energy =                -775.4594107562402314
    Two-Electron Energy =                 300.2677346666260405
    Total Energy =                       -262.6399449465013163

  Dipole Moment: [D]
     X:    -0.0000      Y:     0.0000      Z:    -0.0000     Total:     0.0000

    SAPT Results
  --------------------------------------------------------------------------------------------------------
    Electrostatics                  0.01040695 [mEh]       0.00653046 [kcal/mol]       0.02732346 [kJ/mol]
      Elst10,r                      0.01040695 [mEh]       0.00653046 [kcal/mol]       0.02732346 [kJ/mol]

    Exchange                        0.00000016 [mEh]       0.00000010 [kcal/mol]       0.00000042 [kJ/mol]
      Exch10                        0.00000016 [mEh]       0.00000010 [kcal/mol]       0.00000042 [kJ/mol]
      Exch10(S^2)                   0.00000016 [mEh]       0.00000010 [kcal/mol]       0.00000042 [kJ/mol]

    Induction                      -0.00008024 [mEh]      -0.00005035 [kcal/mol]      -0.00021067 [kJ/mol]
      Ind20,r                      -0.00006373 [mEh]      -0.00003999 [kcal/mol]      -0.00016732 [kJ/mol]
      Exch-Ind20,r                  0.00000026 [mEh]       0.00000016 [kcal/mol]       0.00000068 [kJ/mol]
      delta HF,r (2)               -0.00001677 [mEh]      -0.00001052 [kcal/mol]      -0.00004402 [kJ/mol]

    Dispersion                     -0.00329663 [mEh]      -0.00206867 [kcal/mol]      -0.00865530 [kJ/mol]
      Disp20                       -0.00329664 [mEh]      -0.00206867 [kcal/mol]      -0.00865534 [kJ/mol]
      Exch-Disp20                   0.00000001 [mEh]       0.00000001 [kcal/mol]       0.00000004 [kJ/mol]
      Disp20 (SS)                  -0.00164832 [mEh]      -0.00103434 [kcal/mol]      -0.00432767 [kJ/mol]
      Disp20 (OS)                  -0.00164832 [mEh]      -0.00103434 [kcal/mol]      -0.00432767 [kJ/mol]
      Exch-Disp20 (SS)              0.00000001 [mEh]       0.00000001 [kcal/mol]       0.00000003 [kJ/mol]
      Exch-Disp20 (OS)              0.00000000 [mEh]       0.00000000 [kcal/mol]       0.00000001 [kJ/mol]

  Total HF                          0.01032688 [mEh]       0.00648021 [kcal/mol]       0.02711321 [kJ/mol]
  Total SAPT0                       0.00703025 [mEh]       0.00441155 [kcal/mol]       0.01845791 [kJ/mol]

  Special recipe for scaled SAPT0 (see Manual):
    Electrostatics sSAPT0           0.01040695 [mEh]       0.00653046 [kcal/mol]       0.02732346 [kJ/mol]
    Exchange sSAPT0                 0.00000016 [mEh]       0.00000010 [kcal/mol]       0.00000042 [kJ/mol]
    Induction sSAPT0               -0.00008024 [mEh]      -0.00005035 [kcal/mol]      -0.00021067 [kJ/mol]
    Dispersion sSAPT0              -0.00329663 [mEh]      -0.00206867 [kcal/mol]      -0.00865530 [kJ/mol]
  Total sSAPT0                      0.00703025 [mEh]       0.00441155 [kcal/mol]       0.01845791 [kJ/mol]
  --------------------------------------------------------------------------------------------------------

*** Psi4 exiting successfully. Buy a developer a beer!
