                               Psi4 1.4.1 release

  ==> Input File <==

--------------------------------------------------------------------------
# PSI4 file produced by CrystaLattE

# Generated from:               pyrazine.xyz
# Psithon input for N-mer:      2mer-0+173
# Number of atoms per monomer:  [10, 10]
# Number of replicas:           8
# COM priority:                 2.795317031908e-05
# Minimum COM separations:      17.436
# Separation priority:          5.524826747774e-05
# Minimum monomer separations:  13.894
# Cutoff priority:              2.104221973580e-06
# Nuclear repulsion energy:     478.75456569002023

memory 7 GB

molecule Dimer_0_173 {
  N           -1.33084758       0.98032658       0.42627037
  N            3.95377333       0.98032658       0.42627037
  H            3.56713674       4.35218569      -0.94230973
  H           -0.94421098       4.35218569      -0.94230973
  H           -0.94421098      -2.39153253       1.79485047
  H            3.56713674      -2.39153253       1.79485047
  C            2.62292576       2.94097974      -0.42627037
  C            0.00000000       2.94097974      -0.42627037
  C            0.00000000      -0.98032658       1.27881112
  C            2.62292576      -0.98032658       1.27881112
--
  N          -27.76452559     -15.60258709     -10.15553452
  N          -22.47990468     -15.60258709     -10.15553452
  H          -27.37788899     -18.97444620     -11.52411462
  H          -27.37788899     -12.23072798      -8.78695442
  H          -22.86654128     -18.97444620     -11.52411462
  H          -22.86654128     -12.23072798      -8.78695442
  C          -26.43367802     -17.56324025     -11.00807527
  C          -26.43367802     -13.64193393      -9.30299378
  C          -23.81075226     -17.56324025     -11.00807527
  C          -23.81075226     -13.64193393      -9.30299378
units = au
no_com
no_reorient
}

set {
  e_convergence 10
  d_convergence 10
  scf_type df
  mp2_type df
  cc_type df
  freeze_core true
}

energy('sapt0/aug-cc-pvdz')

--------------------------------------------------------------------------

  //              Dimer HF             //
    Molecular point group: c1
  Charge       = 0
  Multiplicity = 1
  Basis Set: AUG-CC-PVDZ
    Blend: AUG-CC-PVDZ
  Basis Set: (AUG-CC-PVDZ AUX)
    Blend: AUG-CC-PVDZ-JKFIT
  @DF-RHF Final Energy:  -525.27989496879945
    Total Energy =                       -525.2798949687994536
  //            Monomer A HF           //
    Molecular point group: c1
  Multiplicity = 1
  Basis Set: AUG-CC-PVDZ
    Blend: AUG-CC-PVDZ
  Basis Set: (AUG-CC-PVDZ AUX)
    Blend: AUG-CC-PVDZ-JKFIT
  @DF-RHF Final Energy:  -262.63994485138471
    Total Energy =                       -262.6399448513847119
  //            Monomer B HF           //
    Molecular point group: c1

    Geometry (in Bohr), charge = 0, multiplicity = 1:

       Center              X                  Y                   Z               Mass
    ------------   -----------------  -----------------  -----------------  -----------------
      Gh(N)          -1.330847580000     0.980326580000     0.426270370000    14.003074004430
      Gh(N)           3.953773330000     0.980326580000     0.426270370000    14.003074004430
      Gh(H)           3.567136740000     4.352185690000    -0.942309730000     1.007825032230
      Gh(H)          -0.944210980000     4.352185690000    -0.942309730000     1.007825032230
      Gh(H)          -0.944210980000    -2.391532530000     1.794850470000     1.007825032230
      Gh(H)           3.567136740000    -2.391532530000     1.794850470000     1.007825032230
      Gh(C)           2.622925760000     2.940979740000    -0.426270370000    12.000000000000
      Gh(C)           0.000000000000     2.940979740000    -0.426270370000    12.000000000000
      Gh(C)           0.000000000000    -0.980326580000     1.278811120000    12.000000000000
      Gh(C)           2.622925760000    -0.980326580000     1.278811120000    12.000000000000
         N          -27.764525590000   -15.602587090000   -10.155534520000    14.003074004430
         N          -22.479904680000   -15.602587090000   -10.155534520000    14.003074004430
         H          -27.377888990000   -18.974446200000   -11.524114620000     1.007825032230
         H          -27.377888990000   -12.230727980000    -8.786954420000     1.007825032230
         H          -22.866541280000   -18.974446200000   -11.524114620000     1.007825032230
         H          -22.866541280000   -12.230727980000    -8.786954420000     1.007825032230
         C          -26.433678020000   -17.563240250000   -11.008075270000    12.000000000000
         C          -26.433678020000   -13.641933930000    -9.302993780000    12.000000000000
         C          -23.810752260000   -17.563240250000   -11.008075270000    12.000000000000
         C          -23.810752260000   -13.641933930000    -9.302993780000    12.000000000000

  Charge       = 0
  Multiplicity = 1
  Basis Set: AUG-CC-PVDZ
    Blend: AUG-CC-PVDZ
  Basis Set: (AUG-CC-PVDZ AUX)
    Blend: AUG-CC-PVDZ-JKFIT

    Orbital Energies [Eh]
    ---------------------

    Doubly Occupied:

       1A    -15.598072     2A    -15.598053     3A    -11.274239
       4A    -11.274194     5A    -11.272975     6A    -11.272969
       7A     -1.313347     8A     -1.224176     9A     -1.076803
      10A     -0.922662    11A     -0.919282    12A     -0.760637
      13A     -0.738402    14A     -0.706214    15A     -0.647687
      16A     -0.580711    17A     -0.574369    18A     -0.497113
      19A     -0.434288    20A     -0.415855    21A     -0.359924

  @DF-RHF Final Energy:  -262.63994484669581

   => Energetics <=

    Nuclear Repulsion Energy =            212.5517311431129315
    One-Electron Energy =                -775.4594096711722386
    Two-Electron Energy =                 300.2677336813634383
    Total Energy =                       -262.6399448466958120

  Dipole Moment: [D]
     X:     0.0000      Y:    -0.0000      Z:    -0.0000     Total:     0.0000

    SAPT Results
  --------------------------------------------------------------------------------------------------------
    Electrostatics                 -0.00527529 [mEh]      -0.00331030 [kcal/mol]      -0.01385028 [kJ/mol]
      Elst10,r                     -0.00527529 [mEh]      -0.00331030 [kcal/mol]      -0.01385028 [kJ/mol]

    Exchange                        0.00000000 [mEh]       0.00000000 [kcal/mol]       0.00000000 [kJ/mol]
      Exch10                        0.00000000 [mEh]       0.00000000 [kcal/mol]       0.00000000 [kJ/mol]
      Exch10(S^2)                   0.00000000 [mEh]       0.00000000 [kcal/mol]       0.00000000 [kJ/mol]

    Induction                       0.00000457 [mEh]       0.00000287 [kcal/mol]       0.00001201 [kJ/mol]
      Ind20,r                      -0.00001291 [mEh]      -0.00000810 [kcal/mol]      -0.00003390 [kJ/mol]
      Exch-Ind20,r                  0.00000000 [mEh]       0.00000000 [kcal/mol]       0.00000000 [kJ/mol]
      delta HF,r (2)                0.00001748 [mEh]       0.00001097 [kcal/mol]       0.00004590 [kJ/mol]

    Dispersion                     -0.00148716 [mEh]      -0.00093321 [kcal/mol]      -0.00390453 [kJ/mol]
      Disp20                       -0.00148716 [mEh]      -0.00093321 [kcal/mol]      -0.00390453 [kJ/mol]
      Exch-Disp20                   0.00000000 [mEh]       0.00000000 [kcal/mol]       0.00000000 [kJ/mol]
      Disp20 (SS)                  -0.00074358 [mEh]      -0.00046660 [kcal/mol]      -0.00195227 [kJ/mol]
      Disp20 (OS)                  -0.00074358 [mEh]      -0.00046660 [kcal/mol]      -0.00195227 [kJ/mol]
      Exch-Disp20 (SS)              0.00000000 [mEh]       0.00000000 [kcal/mol]       0.00000000 [kJ/mol]
      Exch-Disp20 (OS)              0.00000000 [mEh]       0.00000000 [kcal/mol]       0.00000000 [kJ/mol]

  Total HF                         -0.00527072 [mEh]      -0.00330743 [kcal/mol]      -0.01383827 [kJ/mol]
  Total SAPT0                      -0.00675788 [mEh]      -0.00424063 [kcal/mol]      -0.01774280 [kJ/mol]

  Special recipe for scaled SAPT0 (see Manual):
    Electrostatics sSAPT0          -0.00527529 [mEh]      -0.00331030 [kcal/mol]      -0.01385028 [kJ/mol]
    Exchange sSAPT0                 0.00000000 [mEh]       0.00000000 [kcal/mol]       0.00000000 [kJ/mol]
    Induction sSAPT0                0.00000457 [mEh]       0.00000287 [kcal/mol]       0.00001201 [kJ/mol]
    Dispersion sSAPT0              -0.00148716 [mEh]      -0.00093321 [kcal/mol]      -0.00390453 [kJ/mol]
  Total sSAPT0                     -0.00675788 [mEh]      -0.00424063 [kcal/mol]      -0.01774280 [kJ/mol]
  --------------------------------------------------------------------------------------------------------

*** Psi4 exiting successfully. Buy a developer a beer!
