                               Psi4 1.4.1 release

  ==> Input File <==

--------------------------------------------------------------------------
# PSI4 file produced by CrystaLattE

# Generated from:               pyrazine.xyz
# Psithon input for N-mer:      2mer-0+61
# Number of atoms per monomer:  [10, 10]
# Number of replicas:           2
# COM priority:                 7.999235773177e-05
# Minimum COM separations:      12.282
# Separation priority:          2.458973086770e-04
# Minimum monomer separations:  8.447
# Cutoff priority:              1.540535464461e-05
# Nuclear repulsion energy:     501.6623346717689

memory 7 GB

molecule Dimer_0_61 {
  N           -1.33084758       0.98032658       0.42627037
  N            3.95377333       0.98032658       0.42627037
  H            3.56713674       4.35218569      -0.94230973
  H           -0.94421098       4.35218569      -0.94230973
  H           -0.94421098      -2.39153253       1.79485047
  H            3.56713674      -2.39153253       1.79485047
  C            2.62292576       2.94097974      -0.42627037
  C            0.00000000       2.94097974      -0.42627037
  C            0.00000000      -0.98032658       1.27881112
  C            2.62292576      -0.98032658       1.27881112
--
  N           -1.33084758     -21.13022498       7.48080697
  N            3.95377333     -21.13022498       7.48080697
  H            3.56713674     -17.75836587       6.11222687
  H           -0.94421098     -17.75836587       6.11222687
  H           -0.94421098     -24.50208409       8.84938707
  H            3.56713674     -24.50208409       8.84938707
  C            2.62292576     -19.16957182       6.62826622
  C            0.00000000     -19.16957182       6.62826622
  C            0.00000000     -23.09087814       8.33334772
  C            2.62292576     -23.09087814       8.33334772
units = au
no_com
no_reorient
}

set {
  e_convergence 10
  d_convergence 10
  scf_type df
  mp2_type df
  cc_type df
  freeze_core true
}

energy('sapt0/aug-cc-pvdz')

--------------------------------------------------------------------------

  //              Dimer HF             //
    Molecular point group: c1
  Charge       = 0
  Multiplicity = 1
  Basis Set: AUG-CC-PVDZ
    Blend: AUG-CC-PVDZ
  Basis Set: (AUG-CC-PVDZ AUX)
    Blend: AUG-CC-PVDZ-JKFIT
  @DF-RHF Final Energy:  -525.27983187891243
    Total Energy =                       -525.2798318789124323
  //            Monomer A HF           //
    Molecular point group: c1
  Multiplicity = 1
  Basis Set: AUG-CC-PVDZ
    Blend: AUG-CC-PVDZ
  Basis Set: (AUG-CC-PVDZ AUX)
    Blend: AUG-CC-PVDZ-JKFIT
  @DF-RHF Final Energy:  -262.63995164975961
    Total Energy =                       -262.6399516497596096
  //            Monomer B HF           //
    Molecular point group: c1

    Geometry (in Bohr), charge = 0, multiplicity = 1:

       Center              X                  Y                   Z               Mass
    ------------   -----------------  -----------------  -----------------  -----------------
      Gh(N)          -1.330847580000     0.980326580000     0.426270370000    14.003074004430
      Gh(N)           3.953773330000     0.980326580000     0.426270370000    14.003074004430
      Gh(H)           3.567136740000     4.352185690000    -0.942309730000     1.007825032230
      Gh(H)          -0.944210980000     4.352185690000    -0.942309730000     1.007825032230
      Gh(H)          -0.944210980000    -2.391532530000     1.794850470000     1.007825032230
      Gh(H)           3.567136740000    -2.391532530000     1.794850470000     1.007825032230
      Gh(C)           2.622925760000     2.940979740000    -0.426270370000    12.000000000000
      Gh(C)           0.000000000000     2.940979740000    -0.426270370000    12.000000000000
      Gh(C)           0.000000000000    -0.980326580000     1.278811120000    12.000000000000
      Gh(C)           2.622925760000    -0.980326580000     1.278811120000    12.000000000000
         N           -1.330847580000   -21.130224980000     7.480806970000    14.003074004430
         N            3.953773330000   -21.130224980000     7.480806970000    14.003074004430
         H            3.567136740000   -17.758365870000     6.112226870000     1.007825032230
         H           -0.944210980000   -17.758365870000     6.112226870000     1.007825032230
         H           -0.944210980000   -24.502084090000     8.849387070000     1.007825032230
         H            3.567136740000   -24.502084090000     8.849387070000     1.007825032230
         C            2.622925760000   -19.169571820000     6.628266220000    12.000000000000
         C            0.000000000000   -19.169571820000     6.628266220000    12.000000000000
         C            0.000000000000   -23.090878140000     8.333347720000    12.000000000000
         C            2.622925760000   -23.090878140000     8.333347720000    12.000000000000

  Charge       = 0
  Multiplicity = 1
  Basis Set: AUG-CC-PVDZ
    Blend: AUG-CC-PVDZ
  Basis Set: (AUG-CC-PVDZ AUX)
    Blend: AUG-CC-PVDZ-JKFIT

    Orbital Energies [Eh]
    ---------------------

    Doubly Occupied:

       1A    -15.598070     2A    -15.598051     3A    -11.274237
       4A    -11.274192     5A    -11.272974     6A    -11.272966
       7A     -1.313346     8A     -1.224175     9A     -1.076803
      10A     -0.922663    11A     -0.919282    12A     -0.760637
      13A     -0.738401    14A     -0.706215    15A     -0.647688
      16A     -0.580711    17A     -0.574370    18A     -0.497112
      19A     -0.434288    20A     -0.415855    21A     -0.359924

  @DF-RHF Final Energy:  -262.63995165126630

   => Energetics <=

    Nuclear Repulsion Energy =            212.5517310423005597
    One-Electron Energy =                -775.4594430729962369
    Two-Electron Energy =                 300.2677603794293191
    Total Energy =                       -262.6399516512663013

  Dipole Moment: [D]
     X:     0.0000      Y:     0.0000      Z:    -0.0000     Total:     0.0000

    SAPT Results
  --------------------------------------------------------------------------------------------------------
    Electrostatics                  0.07220997 [mEh]       0.04531244 [kcal/mol]       0.18958725 [kJ/mol]
      Elst10,r                      0.07220997 [mEh]       0.04531244 [kcal/mol]       0.18958725 [kJ/mol]

    Exchange                        0.00000650 [mEh]       0.00000408 [kcal/mol]       0.00001706 [kJ/mol]
      Exch10                        0.00000650 [mEh]       0.00000408 [kcal/mol]       0.00001706 [kJ/mol]
      Exch10(S^2)                   0.00000650 [mEh]       0.00000408 [kcal/mol]       0.00001706 [kJ/mol]

    Induction                      -0.00079436 [mEh]      -0.00049847 [kcal/mol]      -0.00208558 [kJ/mol]
      Ind20,r                      -0.00068254 [mEh]      -0.00042830 [kcal/mol]      -0.00179200 [kJ/mol]
      Exch-Ind20,r                  0.00001026 [mEh]       0.00000644 [kcal/mol]       0.00002694 [kJ/mol]
      delta HF,r (2)               -0.00012208 [mEh]      -0.00007661 [kcal/mol]      -0.00032052 [kJ/mol]

    Dispersion                     -0.01555515 [mEh]      -0.00976100 [kcal/mol]      -0.04084004 [kJ/mol]
      Disp20                       -0.01555576 [mEh]      -0.00976139 [kcal/mol]      -0.04084164 [kJ/mol]
      Exch-Disp20                   0.00000061 [mEh]       0.00000038 [kcal/mol]       0.00000159 [kJ/mol]
      Disp20 (SS)                  -0.00777788 [mEh]      -0.00488069 [kcal/mol]      -0.02042082 [kJ/mol]
      Disp20 (OS)                  -0.00777788 [mEh]      -0.00488069 [kcal/mol]      -0.02042082 [kJ/mol]
      Exch-Disp20 (SS)              0.00000046 [mEh]       0.00000029 [kcal/mol]       0.00000121 [kJ/mol]
      Exch-Disp20 (OS)              0.00000015 [mEh]       0.00000009 [kcal/mol]       0.00000039 [kJ/mol]

  Total HF                          0.07142211 [mEh]       0.04481805 [kcal/mol]       0.18751873 [kJ/mol]
  Total SAPT0                       0.05586696 [mEh]       0.03505705 [kcal/mol]       0.14667869 [kJ/mol]

  Special recipe for scaled SAPT0 (see Manual):
    Electrostatics sSAPT0           0.07220997 [mEh]       0.04531244 [kcal/mol]       0.18958725 [kJ/mol]
    Exchange sSAPT0                 0.00000650 [mEh]       0.00000408 [kcal/mol]       0.00001706 [kJ/mol]
    Induction sSAPT0               -0.00079436 [mEh]      -0.00049847 [kcal/mol]      -0.00208558 [kJ/mol]
    Dispersion sSAPT0              -0.01555515 [mEh]      -0.00976100 [kcal/mol]      -0.04084004 [kJ/mol]
  Total sSAPT0                      0.05586696 [mEh]       0.03505705 [kcal/mol]       0.14667869 [kJ/mol]
  --------------------------------------------------------------------------------------------------------

*** Psi4 exiting successfully. Buy a developer a beer!
