                               Psi4 1.4.1 release

  ==> Input File <==

--------------------------------------------------------------------------
# PSI4 file produced by CrystaLattE

# Generated from:               pyrazine.xyz
# Psithon input for N-mer:      2mer-0+240
# Number of atoms per monomer:  [10, 10]
# Number of replicas:           2
# COM priority:                 2.284078381649e-05
# Minimum COM separations:      18.651
# Separation priority:          3.718452697317e-05
# Minimum monomer separations:  15.854
# Cutoff priority:              1.241127356320e-06
# Nuclear repulsion energy:     475.3039425836622

memory 7 GB

molecule Dimer_0_240 {
  N           -1.33084758       0.98032658       0.42627037
  N            3.95377333       0.98032658       0.42627037
  H            3.56713674       4.35218569      -0.94230973
  H           -0.94421098       4.35218569      -0.94230973
  H           -0.94421098      -2.39153253       1.79485047
  H            3.56713674      -2.39153253       1.79485047
  C            2.62292576       2.94097974      -0.42627037
  C            0.00000000       2.94097974      -0.42627037
  C            0.00000000      -0.98032658       1.27881112
  C            2.62292576      -0.98032658       1.27881112
--
  N          -36.57575160       0.98032658       0.42627037
  N          -31.29113069       0.98032658       0.42627037
  H          -31.67776728       4.35218569      -0.94230973
  H          -36.18911500       4.35218569      -0.94230973
  H          -36.18911500      -2.39153253       1.79485047
  H          -31.67776728      -2.39153253       1.79485047
  C          -32.62197826       2.94097974      -0.42627037
  C          -35.24490402       2.94097974      -0.42627037
  C          -35.24490402      -0.98032658       1.27881112
  C          -32.62197826      -0.98032658       1.27881112
units = au
no_com
no_reorient
}

set {
  e_convergence 10
  d_convergence 10
  scf_type df
  mp2_type df
  cc_type df
  freeze_core true
}

energy('sapt0/aug-cc-pvdz')

--------------------------------------------------------------------------

  //              Dimer HF             //
    Molecular point group: c1
  Charge       = 0
  Multiplicity = 1
  Basis Set: AUG-CC-PVDZ
    Blend: AUG-CC-PVDZ
  Basis Set: (AUG-CC-PVDZ AUX)
    Blend: AUG-CC-PVDZ-JKFIT
  @DF-RHF Final Energy:  -525.27988186602852
    Total Energy =                       -525.2798818660285178
  //            Monomer A HF           //
    Molecular point group: c1
  Multiplicity = 1
  Basis Set: AUG-CC-PVDZ
    Blend: AUG-CC-PVDZ
  Basis Set: (AUG-CC-PVDZ AUX)
    Blend: AUG-CC-PVDZ-JKFIT
  @DF-RHF Final Energy:  -262.63994485043924
    Total Energy =                       -262.6399448504392353
  //            Monomer B HF           //
    Molecular point group: c1

    Geometry (in Bohr), charge = 0, multiplicity = 1:

       Center              X                  Y                   Z               Mass
    ------------   -----------------  -----------------  -----------------  -----------------
      Gh(N)          -1.330847580000     0.980326580000     0.426270370000    14.003074004430
      Gh(N)           3.953773330000     0.980326580000     0.426270370000    14.003074004430
      Gh(H)           3.567136740000     4.352185690000    -0.942309730000     1.007825032230
      Gh(H)          -0.944210980000     4.352185690000    -0.942309730000     1.007825032230
      Gh(H)          -0.944210980000    -2.391532530000     1.794850470000     1.007825032230
      Gh(H)           3.567136740000    -2.391532530000     1.794850470000     1.007825032230
      Gh(C)           2.622925760000     2.940979740000    -0.426270370000    12.000000000000
      Gh(C)           0.000000000000     2.940979740000    -0.426270370000    12.000000000000
      Gh(C)           0.000000000000    -0.980326580000     1.278811120000    12.000000000000
      Gh(C)           2.622925760000    -0.980326580000     1.278811120000    12.000000000000
         N          -36.575751600000     0.980326580000     0.426270370000    14.003074004430
         N          -31.291130690000     0.980326580000     0.426270370000    14.003074004430
         H          -31.677767280000     4.352185690000    -0.942309730000     1.007825032230
         H          -36.189115000000     4.352185690000    -0.942309730000     1.007825032230
         H          -36.189115000000    -2.391532530000     1.794850470000     1.007825032230
         H          -31.677767280000    -2.391532530000     1.794850470000     1.007825032230
         C          -32.621978260000     2.940979740000    -0.426270370000    12.000000000000
         C          -35.244904020000     2.940979740000    -0.426270370000    12.000000000000
         C          -35.244904020000    -0.980326580000     1.278811120000    12.000000000000
         C          -32.621978260000    -0.980326580000     1.278811120000    12.000000000000

  Charge       = 0
  Multiplicity = 1
  Basis Set: AUG-CC-PVDZ
    Blend: AUG-CC-PVDZ
  Basis Set: (AUG-CC-PVDZ AUX)
    Blend: AUG-CC-PVDZ-JKFIT

    Orbital Energies [Eh]
    ---------------------

    Doubly Occupied:

       1A    -15.598072     2A    -15.598053     3A    -11.274239
       4A    -11.274194     5A    -11.272975     6A    -11.272969
       7A     -1.313347     8A     -1.224176     9A     -1.076803
      10A     -0.922662    11A     -0.919282    12A     -0.760637
      13A     -0.738402    14A     -0.706214    15A     -0.647687
      16A     -0.580711    17A     -0.574369    18A     -0.497113
      19A     -0.434288    20A     -0.415855    21A     -0.359924

  @DF-RHF Final Energy:  -262.63994484908892

   => Energetics <=

    Nuclear Repulsion Energy =            212.5517311104853491
    One-Electron Energy =                -775.4594096217123251
    Two-Electron Energy =                 300.2677336621380846
    Total Energy =                       -262.6399448490889199

  Dipole Moment: [D]
     X:     0.0000      Y:     0.0000      Z:     0.0000     Total:     0.0000

    SAPT Results
  --------------------------------------------------------------------------------------------------------
    Electrostatics                  0.00780245 [mEh]       0.00489611 [kcal/mol]       0.02048533 [kJ/mol]
      Elst10,r                      0.00780245 [mEh]       0.00489611 [kcal/mol]       0.02048533 [kJ/mol]

    Exchange                        0.00000000 [mEh]       0.00000000 [kcal/mol]       0.00000000 [kJ/mol]
      Exch10                        0.00000000 [mEh]       0.00000000 [kcal/mol]       0.00000000 [kJ/mol]
      Exch10(S^2)                   0.00000000 [mEh]       0.00000000 [kcal/mol]       0.00000000 [kJ/mol]

    Induction                       0.00003105 [mEh]       0.00001948 [kcal/mol]       0.00008152 [kJ/mol]
      Ind20,r                      -0.00001476 [mEh]      -0.00000926 [kcal/mol]      -0.00003875 [kJ/mol]
      Exch-Ind20,r                  0.00000000 [mEh]       0.00000000 [kcal/mol]       0.00000000 [kJ/mol]
      delta HF,r (2)                0.00004581 [mEh]       0.00002874 [kcal/mol]       0.00012027 [kJ/mol]

    Dispersion                     -0.00102450 [mEh]      -0.00064288 [kcal/mol]      -0.00268982 [kJ/mol]
      Disp20                       -0.00102450 [mEh]      -0.00064288 [kcal/mol]      -0.00268982 [kJ/mol]
      Exch-Disp20                   0.00000000 [mEh]       0.00000000 [kcal/mol]       0.00000000 [kJ/mol]
      Disp20 (SS)                  -0.00051225 [mEh]      -0.00032144 [kcal/mol]      -0.00134491 [kJ/mol]
      Disp20 (OS)                  -0.00051225 [mEh]      -0.00032144 [kcal/mol]      -0.00134491 [kJ/mol]
      Exch-Disp20 (SS)              0.00000000 [mEh]       0.00000000 [kcal/mol]       0.00000000 [kJ/mol]
      Exch-Disp20 (OS)              0.00000000 [mEh]       0.00000000 [kcal/mol]       0.00000000 [kJ/mol]

  Total HF                          0.00783350 [mEh]       0.00491560 [kcal/mol]       0.02056685 [kJ/mol]
  Total SAPT0                       0.00680900 [mEh]       0.00427271 [kcal/mol]       0.01787703 [kJ/mol]

  Special recipe for scaled SAPT0 (see Manual):
    Electrostatics sSAPT0           0.00780245 [mEh]       0.00489611 [kcal/mol]       0.02048533 [kJ/mol]
    Exchange sSAPT0                 0.00000000 [mEh]       0.00000000 [kcal/mol]       0.00000000 [kJ/mol]
    Induction sSAPT0                0.00003105 [mEh]       0.00001948 [kcal/mol]       0.00008152 [kJ/mol]
    Dispersion sSAPT0              -0.00102450 [mEh]      -0.00064288 [kcal/mol]      -0.00268982 [kJ/mol]
  Total sSAPT0                      0.00680900 [mEh]       0.00427271 [kcal/mol]       0.01787703 [kJ/mol]
  --------------------------------------------------------------------------------------------------------

*** Psi4 exiting successfully. Buy a developer a beer!
