                               Psi4 1.4.1 release

  ==> Input File <==

--------------------------------------------------------------------------
# PSI4 file produced by CrystaLattE

# Generated from:               pyrazine.xyz
# Psithon input for N-mer:      2mer-0+255
# Number of atoms per monomer:  [10, 10]
# Number of replicas:           4
# COM priority:                 1.887686107862e-05
# Minimum COM separations:      19.874
# Separation priority:          3.846925344529e-05
# Minimum monomer separations:  15.676
# Cutoff priority:              1.298628742860e-06
# Nuclear repulsion energy:     472.1559133435818

memory 7 GB

molecule Dimer_0_255 {
  N           -1.33084758       0.98032658       0.42627037
  N            3.95377333       0.98032658       0.42627037
  H            3.56713674       4.35218569      -0.94230973
  H           -0.94421098       4.35218569      -0.94230973
  H           -0.94421098      -2.39153253       1.79485047
  H            3.56713674      -2.39153253       1.79485047
  C            2.62292576       2.94097974      -0.42627037
  C            0.00000000       2.94097974      -0.42627037
  C            0.00000000      -0.98032658       1.27881112
  C            2.62292576      -0.98032658       1.27881112
--
  N          -18.95329959     -32.18550076       0.42627037
  N          -13.66867868     -32.18550076       0.42627037
  H          -14.05531527     -28.81364165      -0.94230973
  H          -18.56666299     -28.81364165      -0.94230973
  H          -18.56666299     -35.55735987       1.79485047
  H          -14.05531527     -35.55735987       1.79485047
  C          -14.99952625     -30.22484760      -0.42627037
  C          -17.62245201     -30.22484760      -0.42627037
  C          -17.62245201     -34.14615392       1.27881112
  C          -14.99952625     -34.14615392       1.27881112
units = au
no_com
no_reorient
}

set {
  e_convergence 10
  d_convergence 10
  scf_type df
  mp2_type df
  cc_type df
  freeze_core true
}

energy('sapt0/aug-cc-pvdz')

--------------------------------------------------------------------------

  //              Dimer HF             //
    Molecular point group: c1
  Charge       = 0
  Multiplicity = 1
  Basis Set: AUG-CC-PVDZ
    Blend: AUG-CC-PVDZ
  Basis Set: (AUG-CC-PVDZ AUX)
    Blend: AUG-CC-PVDZ-JKFIT
  @DF-RHF Final Energy:  -525.27989149972643
    Total Energy =                       -525.2798914997264319
  //            Monomer A HF           //
    Molecular point group: c1
  Multiplicity = 1
  Basis Set: AUG-CC-PVDZ
    Blend: AUG-CC-PVDZ
  Basis Set: (AUG-CC-PVDZ AUX)
    Blend: AUG-CC-PVDZ-JKFIT
  @DF-RHF Final Energy:  -262.63994485134151
    Total Energy =                       -262.6399448513415109
  //            Monomer B HF           //
    Molecular point group: c1

    Geometry (in Bohr), charge = 0, multiplicity = 1:

       Center              X                  Y                   Z               Mass
    ------------   -----------------  -----------------  -----------------  -----------------
      Gh(N)          -1.330847580000     0.980326580000     0.426270370000    14.003074004430
      Gh(N)           3.953773330000     0.980326580000     0.426270370000    14.003074004430
      Gh(H)           3.567136740000     4.352185690000    -0.942309730000     1.007825032230
      Gh(H)          -0.944210980000     4.352185690000    -0.942309730000     1.007825032230
      Gh(H)          -0.944210980000    -2.391532530000     1.794850470000     1.007825032230
      Gh(H)           3.567136740000    -2.391532530000     1.794850470000     1.007825032230
      Gh(C)           2.622925760000     2.940979740000    -0.426270370000    12.000000000000
      Gh(C)           0.000000000000     2.940979740000    -0.426270370000    12.000000000000
      Gh(C)           0.000000000000    -0.980326580000     1.278811120000    12.000000000000
      Gh(C)           2.622925760000    -0.980326580000     1.278811120000    12.000000000000
         N          -18.953299590000   -32.185500760000     0.426270370000    14.003074004430
         N          -13.668678680000   -32.185500760000     0.426270370000    14.003074004430
         H          -14.055315270000   -28.813641650000    -0.942309730000     1.007825032230
         H          -18.566662990000   -28.813641650000    -0.942309730000     1.007825032230
         H          -18.566662990000   -35.557359870000     1.794850470000     1.007825032230
         H          -14.055315270000   -35.557359870000     1.794850470000     1.007825032230
         C          -14.999526250000   -30.224847600000    -0.426270370000    12.000000000000
         C          -17.622452010000   -30.224847600000    -0.426270370000    12.000000000000
         C          -17.622452010000   -34.146153920000     1.278811120000    12.000000000000
         C          -14.999526250000   -34.146153920000     1.278811120000    12.000000000000

  Charge       = 0
  Multiplicity = 1
  Basis Set: AUG-CC-PVDZ
    Blend: AUG-CC-PVDZ
  Basis Set: (AUG-CC-PVDZ AUX)
    Blend: AUG-CC-PVDZ-JKFIT

    Orbital Energies [Eh]
    ---------------------

    Doubly Occupied:

       1A    -15.598072     2A    -15.598053     3A    -11.274239
       4A    -11.274194     5A    -11.272975     6A    -11.272969
       7A     -1.313347     8A     -1.224176     9A     -1.076803
      10A     -0.922662    11A     -0.919282    12A     -0.760637
      13A     -0.738402    14A     -0.706214    15A     -0.647687
      16A     -0.580711    17A     -0.574369    18A     -0.497113
      19A     -0.434288    20A     -0.415855    21A     -0.359924

  @DF-RHF Final Energy:  -262.63994485003110

   => Energetics <=

    Nuclear Repulsion Energy =            212.5517311104852354
    One-Electron Energy =                -775.4594096295544432
    Two-Electron Energy =                 300.2677336690381367
    Total Energy =                       -262.6399448500310996

  Dipole Moment: [D]
     X:     0.0000      Y:    -0.0000      Z:     0.0000     Total:     0.0000

    SAPT Results
  --------------------------------------------------------------------------------------------------------
    Electrostatics                 -0.00179315 [mEh]      -0.00112522 [kcal/mol]      -0.00470792 [kJ/mol]
      Elst10,r                     -0.00179315 [mEh]      -0.00112522 [kcal/mol]      -0.00470792 [kJ/mol]

    Exchange                        0.00000000 [mEh]       0.00000000 [kcal/mol]       0.00000000 [kJ/mol]
      Exch10                        0.00000000 [mEh]       0.00000000 [kcal/mol]       0.00000000 [kJ/mol]
      Exch10(S^2)                   0.00000000 [mEh]       0.00000000 [kcal/mol]       0.00000000 [kJ/mol]

    Induction                      -0.00000520 [mEh]      -0.00000326 [kcal/mol]      -0.00001366 [kJ/mol]
      Ind20,r                      -0.00000574 [mEh]      -0.00000360 [kcal/mol]      -0.00001508 [kJ/mol]
      Exch-Ind20,r                  0.00000000 [mEh]       0.00000000 [kcal/mol]       0.00000000 [kJ/mol]
      delta HF,r (2)                0.00000054 [mEh]       0.00000034 [kcal/mol]       0.00000142 [kJ/mol]

    Dispersion                     -0.00068479 [mEh]      -0.00042971 [kcal/mol]      -0.00179792 [kJ/mol]
      Disp20                       -0.00068479 [mEh]      -0.00042971 [kcal/mol]      -0.00179792 [kJ/mol]
      Exch-Disp20                   0.00000000 [mEh]       0.00000000 [kcal/mol]       0.00000000 [kJ/mol]
      Disp20 (SS)                  -0.00034240 [mEh]      -0.00021486 [kcal/mol]      -0.00089896 [kJ/mol]
      Disp20 (OS)                  -0.00034240 [mEh]      -0.00021486 [kcal/mol]      -0.00089896 [kJ/mol]
      Exch-Disp20 (SS)              0.00000000 [mEh]       0.00000000 [kcal/mol]       0.00000000 [kJ/mol]
      Exch-Disp20 (OS)              0.00000000 [mEh]       0.00000000 [kcal/mol]       0.00000000 [kJ/mol]

  Total HF                         -0.00179835 [mEh]      -0.00112848 [kcal/mol]      -0.00472158 [kJ/mol]
  Total SAPT0                      -0.00248315 [mEh]      -0.00155820 [kcal/mol]      -0.00651950 [kJ/mol]

  Special recipe for scaled SAPT0 (see Manual):
    Electrostatics sSAPT0          -0.00179315 [mEh]      -0.00112522 [kcal/mol]      -0.00470792 [kJ/mol]
    Exchange sSAPT0                 0.00000000 [mEh]       0.00000000 [kcal/mol]       0.00000000 [kJ/mol]
    Induction sSAPT0               -0.00000520 [mEh]      -0.00000326 [kcal/mol]      -0.00001366 [kJ/mol]
    Dispersion sSAPT0              -0.00068479 [mEh]      -0.00042971 [kcal/mol]      -0.00179792 [kJ/mol]
  Total sSAPT0                     -0.00248315 [mEh]      -0.00155820 [kcal/mol]      -0.00651950 [kJ/mol]
  --------------------------------------------------------------------------------------------------------

*** Psi4 exiting successfully. Buy a developer a beer!
