                               Psi4 1.4.1 release

  ==> Input File <==

--------------------------------------------------------------------------
# PSI4 file produced by CrystaLattE

# Generated from:               pyrazine.xyz
# Psithon input for N-mer:      2mer-0+42
# Number of atoms per monomer:  [10, 10]
# Number of replicas:           2
# COM priority:                 1.736457607046e-04
# Minimum COM separations:      9.485
# Separation priority:          1.936668495513e-04
# Minimum monomer separations:  9.146
# Cutoff priority:              1.120487588782e-05
# Nuclear repulsion energy:     521.4936495536713

memory 7 GB

molecule Dimer_0_42 {
  N           -1.33084758       0.98032658       0.42627037
  N            3.95377333       0.98032658       0.42627037
  H            3.56713674       4.35218569      -0.94230973
  H           -0.94421098       4.35218569      -0.94230973
  H           -0.94421098      -2.39153253       1.79485047
  H            3.56713674      -2.39153253       1.79485047
  C            2.62292576       2.94097974      -0.42627037
  C            0.00000000       2.94097974      -0.42627037
  C            0.00000000      -0.98032658       1.27881112
  C            2.62292576      -0.98032658       1.27881112
--
  N           -1.33084758     -10.07494920     -13.68280282
  N            3.95377333     -10.07494920     -13.68280282
  H            3.56713674      -6.70309009     -15.05138292
  H           -0.94421098      -6.70309009     -15.05138292
  H           -0.94421098     -13.44680831     -12.31422272
  H            3.56713674     -13.44680831     -12.31422272
  C            2.62292576      -8.11429604     -14.53534357
  C            0.00000000      -8.11429604     -14.53534357
  C            0.00000000     -12.03560236     -12.83026208
  C            2.62292576     -12.03560236     -12.83026208
units = au
no_com
no_reorient
}

set {
  e_convergence 10
  d_convergence 10
  scf_type df
  mp2_type df
  cc_type df
  freeze_core true
}

energy('sapt0/aug-cc-pvdz')

--------------------------------------------------------------------------

  //              Dimer HF             //
    Molecular point group: c1
  Charge       = 0
  Multiplicity = 1
  Basis Set: AUG-CC-PVDZ
    Blend: AUG-CC-PVDZ
  Basis Set: (AUG-CC-PVDZ AUX)
    Blend: AUG-CC-PVDZ-JKFIT
  @DF-RHF Final Energy:  -525.27987985280572
    Total Energy =                       -525.2798798528057205
  //            Monomer A HF           //
    Molecular point group: c1
  Multiplicity = 1
  Basis Set: AUG-CC-PVDZ
    Blend: AUG-CC-PVDZ
  Basis Set: (AUG-CC-PVDZ AUX)
    Blend: AUG-CC-PVDZ-JKFIT
  @DF-RHF Final Energy:  -262.63995087539672
    Total Energy =                       -262.6399508753967211
  //            Monomer B HF           //
    Molecular point group: c1

    Geometry (in Bohr), charge = 0, multiplicity = 1:

       Center              X                  Y                   Z               Mass
    ------------   -----------------  -----------------  -----------------  -----------------
      Gh(N)          -1.330847580000     0.980326580000     0.426270370000    14.003074004430
      Gh(N)           3.953773330000     0.980326580000     0.426270370000    14.003074004430
      Gh(H)           3.567136740000     4.352185690000    -0.942309730000     1.007825032230
      Gh(H)          -0.944210980000     4.352185690000    -0.942309730000     1.007825032230
      Gh(H)          -0.944210980000    -2.391532530000     1.794850470000     1.007825032230
      Gh(H)           3.567136740000    -2.391532530000     1.794850470000     1.007825032230
      Gh(C)           2.622925760000     2.940979740000    -0.426270370000    12.000000000000
      Gh(C)           0.000000000000     2.940979740000    -0.426270370000    12.000000000000
      Gh(C)           0.000000000000    -0.980326580000     1.278811120000    12.000000000000
      Gh(C)           2.622925760000    -0.980326580000     1.278811120000    12.000000000000
         N           -1.330847580000   -10.074949200000   -13.682802820000    14.003074004430
         N            3.953773330000   -10.074949200000   -13.682802820000    14.003074004430
         H            3.567136740000    -6.703090090000   -15.051382920000     1.007825032230
         H           -0.944210980000    -6.703090090000   -15.051382920000     1.007825032230
         H           -0.944210980000   -13.446808310000   -12.314222720000     1.007825032230
         H            3.567136740000   -13.446808310000   -12.314222720000     1.007825032230
         C            2.622925760000    -8.114296040000   -14.535343570000    12.000000000000
         C            0.000000000000    -8.114296040000   -14.535343570000    12.000000000000
         C            0.000000000000   -12.035602360000   -12.830262080000    12.000000000000
         C            2.622925760000   -12.035602360000   -12.830262080000    12.000000000000

  Charge       = 0
  Multiplicity = 1
  Basis Set: AUG-CC-PVDZ
    Blend: AUG-CC-PVDZ
  Basis Set: (AUG-CC-PVDZ AUX)
    Blend: AUG-CC-PVDZ-JKFIT

    Orbital Energies [Eh]
    ---------------------

    Doubly Occupied:

       1A    -15.598072     2A    -15.598053     3A    -11.274237
       4A    -11.274192     5A    -11.272973     6A    -11.272968
       7A     -1.313347     8A     -1.224176     9A     -1.076803
      10A     -0.922662    11A     -0.919283    12A     -0.760638
      13A     -0.738401    14A     -0.706214    15A     -0.647688
      16A     -0.580711    17A     -0.574369    18A     -0.497113
      19A     -0.434288    20A     -0.415856    21A     -0.359924

  @DF-RHF Final Energy:  -262.63995087769530

   => Energetics <=

    Nuclear Repulsion Energy =            212.5517311104852638
    One-Electron Energy =                -775.4594280007664793
    Two-Electron Energy =                 300.2677460125858602
    Total Energy =                       -262.6399508776952985

  Dipole Moment: [D]
     X:     0.0000      Y:    -0.0000      Z:     0.0001     Total:     0.0001

    SAPT Results
  --------------------------------------------------------------------------------------------------------
    Electrostatics                  0.02206269 [mEh]       0.01384454 [kcal/mol]       0.05792558 [kJ/mol]
      Elst10,r                      0.02206269 [mEh]       0.01384454 [kcal/mol]       0.05792558 [kJ/mol]

    Exchange                       -0.00000154 [mEh]      -0.00000097 [kcal/mol]      -0.00000404 [kJ/mol]
      Exch10                       -0.00000154 [mEh]      -0.00000097 [kcal/mol]      -0.00000404 [kJ/mol]
      Exch10(S^2)                  -0.00000154 [mEh]      -0.00000097 [kcal/mol]      -0.00000404 [kJ/mol]

    Induction                      -0.00016086 [mEh]      -0.00010094 [kcal/mol]      -0.00042234 [kJ/mol]
      Ind20,r                      -0.00022840 [mEh]      -0.00014332 [kcal/mol]      -0.00059967 [kJ/mol]
      Exch-Ind20,r                  0.00000566 [mEh]       0.00000355 [kcal/mol]       0.00001486 [kJ/mol]
      delta HF,r (2)                0.00006188 [mEh]       0.00003883 [kcal/mol]       0.00016247 [kJ/mol]

    Dispersion                     -0.03963810 [mEh]      -0.02487328 [kcal/mol]      -0.10406981 [kJ/mol]
      Disp20                       -0.03963913 [mEh]      -0.02487393 [kcal/mol]      -0.10407251 [kJ/mol]
      Exch-Disp20                   0.00000103 [mEh]       0.00000064 [kcal/mol]       0.00000270 [kJ/mol]
      Disp20 (SS)                  -0.01981956 [mEh]      -0.01243696 [kcal/mol]      -0.05203625 [kJ/mol]
      Disp20 (OS)                  -0.01981956 [mEh]      -0.01243696 [kcal/mol]      -0.05203625 [kJ/mol]
      Exch-Disp20 (SS)              0.00000090 [mEh]       0.00000056 [kcal/mol]       0.00000235 [kJ/mol]
      Exch-Disp20 (OS)              0.00000013 [mEh]       0.00000008 [kcal/mol]       0.00000035 [kJ/mol]

  Total HF                          0.02190029 [mEh]       0.01374264 [kcal/mol]       0.05749919 [kJ/mol]
  Total SAPT0                      -0.01773781 [mEh]      -0.01113065 [kcal/mol]      -0.04657062 [kJ/mol]

  Special recipe for scaled SAPT0 (see Manual):
    Electrostatics sSAPT0           0.02206269 [mEh]       0.01384454 [kcal/mol]       0.05792558 [kJ/mol]
    Exchange sSAPT0                -0.00000154 [mEh]      -0.00000097 [kcal/mol]      -0.00000404 [kJ/mol]
    Induction sSAPT0               -0.00016086 [mEh]      -0.00010094 [kcal/mol]      -0.00042234 [kJ/mol]
    Dispersion sSAPT0              -0.03963810 [mEh]      -0.02487328 [kcal/mol]      -0.10406981 [kJ/mol]
  Total sSAPT0                     -0.01773781 [mEh]      -0.01113065 [kcal/mol]      -0.04657062 [kJ/mol]
  --------------------------------------------------------------------------------------------------------

*** Psi4 exiting successfully. Buy a developer a beer!
