                               Psi4 1.4.1 release

  ==> Input File <==

--------------------------------------------------------------------------
# PSI4 file produced by CrystaLattE

# Generated from:               pyrazine.xyz
# Psithon input for N-mer:      2mer-0+4
# Number of atoms per monomer:  [10, 10]
# Number of replicas:           2
# COM priority:                 7.401014546393e-04
# Minimum COM separations:      5.850
# Separation priority:          7.507568297426e-03
# Minimum monomer separations:  2.703
# Cutoff priority:              1.470050956418e-03
# Nuclear repulsion energy:     587.0922105633938

memory 7 GB

molecule Dimer_0_4 {
  N           -1.33084758       0.98032658       0.42627037
  N            3.95377333       0.98032658       0.42627037
  H            3.56713674       4.35218569      -0.94230973
  H           -0.94421098       4.35218569      -0.94230973
  H           -0.94421098      -2.39153253       1.79485047
  H            3.56713674      -2.39153253       1.79485047
  C            2.62292576       2.94097974      -0.42627037
  C            0.00000000       2.94097974      -0.42627037
  C            0.00000000      -0.98032658       1.27881112
  C            2.62292576      -0.98032658       1.27881112
--
  N           -1.33084758     -10.07494920       0.42627037
  N            3.95377333     -10.07494920       0.42627037
  H            3.56713674      -6.70309009      -0.94230973
  H           -0.94421098      -6.70309009      -0.94230973
  H           -0.94421098     -13.44680831       1.79485047
  H            3.56713674     -13.44680831       1.79485047
  C            2.62292576      -8.11429604      -0.42627037
  C            0.00000000      -8.11429604      -0.42627037
  C            0.00000000     -12.03560236       1.27881112
  C            2.62292576     -12.03560236       1.27881112
units = au
no_com
no_reorient
}

set {
  e_convergence 10
  d_convergence 10
  scf_type df
  mp2_type df
  cc_type df
  freeze_core true
}

energy('sapt0/aug-cc-pvdz')

--------------------------------------------------------------------------

  //              Dimer HF             //
    Molecular point group: c1
  Charge       = 0
  Multiplicity = 1
  Basis Set: AUG-CC-PVDZ
    Blend: AUG-CC-PVDZ
  Basis Set: (AUG-CC-PVDZ AUX)
    Blend: AUG-CC-PVDZ-JKFIT
  @DF-RHF Final Energy:  -525.27935396064527
    Total Energy =                       -525.2793539606452669
  //            Monomer A HF           //
    Molecular point group: c1
  Multiplicity = 1
  Basis Set: AUG-CC-PVDZ
    Blend: AUG-CC-PVDZ
  Basis Set: (AUG-CC-PVDZ AUX)
    Blend: AUG-CC-PVDZ-JKFIT
  @DF-RHF Final Energy:  -262.64025716165685
    Total Energy =                       -262.6402571616568480
  //            Monomer B HF           //
    Molecular point group: c1

    Geometry (in Bohr), charge = 0, multiplicity = 1:

       Center              X                  Y                   Z               Mass
    ------------   -----------------  -----------------  -----------------  -----------------
      Gh(N)          -1.330847580000     0.980326580000     0.426270370000    14.003074004430
      Gh(N)           3.953773330000     0.980326580000     0.426270370000    14.003074004430
      Gh(H)           3.567136740000     4.352185690000    -0.942309730000     1.007825032230
      Gh(H)          -0.944210980000     4.352185690000    -0.942309730000     1.007825032230
      Gh(H)          -0.944210980000    -2.391532530000     1.794850470000     1.007825032230
      Gh(H)           3.567136740000    -2.391532530000     1.794850470000     1.007825032230
      Gh(C)           2.622925760000     2.940979740000    -0.426270370000    12.000000000000
      Gh(C)           0.000000000000     2.940979740000    -0.426270370000    12.000000000000
      Gh(C)           0.000000000000    -0.980326580000     1.278811120000    12.000000000000
      Gh(C)           2.622925760000    -0.980326580000     1.278811120000    12.000000000000
         N           -1.330847580000   -10.074949200000     0.426270370000    14.003074004430
         N            3.953773330000   -10.074949200000     0.426270370000    14.003074004430
         H            3.567136740000    -6.703090090000    -0.942309730000     1.007825032230
         H           -0.944210980000    -6.703090090000    -0.942309730000     1.007825032230
         H           -0.944210980000   -13.446808310000     1.794850470000     1.007825032230
         H            3.567136740000   -13.446808310000     1.794850470000     1.007825032230
         C            2.622925760000    -8.114296040000    -0.426270370000    12.000000000000
         C            0.000000000000    -8.114296040000    -0.426270370000    12.000000000000
         C            0.000000000000   -12.035602360000     1.278811120000    12.000000000000
         C            2.622925760000   -12.035602360000     1.278811120000    12.000000000000

  Charge       = 0
  Multiplicity = 1
  Basis Set: AUG-CC-PVDZ
    Blend: AUG-CC-PVDZ
  Basis Set: (AUG-CC-PVDZ AUX)
    Blend: AUG-CC-PVDZ-JKFIT

    Orbital Energies [Eh]
    ---------------------

    Doubly Occupied:

       1A    -15.598073     2A    -15.598055     3A    -11.274199
       4A    -11.274041     5A    -11.272951     6A    -11.272798
       7A     -1.313317     8A     -1.224149     9A     -1.076775
      10A     -0.922635    11A     -0.919257    12A     -0.760613
      13A     -0.738381    14A     -0.706188    15A     -0.647670
      16A     -0.580703    17A     -0.574372    18A     -0.497089
      19A     -0.434283    20A     -0.415830    21A     -0.359912

  @DF-RHF Final Energy:  -262.64025716228508

   => Energetics <=

    Nuclear Repulsion Energy =            212.5517311104852638
    One-Electron Energy =                -775.4613932734079071
    Two-Electron Energy =                 300.2694050006375051
    Total Energy =                       -262.6402571622850814

  Dipole Moment: [D]
     X:     0.0000      Y:    -0.0025      Z:     0.0001     Total:     0.0025

    SAPT Results
  --------------------------------------------------------------------------------------------------------
    Electrostatics                 -0.00222936 [mEh]      -0.00139894 [kcal/mol]      -0.00585317 [kJ/mol]
      Elst10,r                     -0.00222936 [mEh]      -0.00139894 [kcal/mol]      -0.00585317 [kJ/mol]

    Exchange                        1.41536531 [mEh]       0.88815514 [kcal/mol]       3.71604110 [kJ/mol]
      Exch10                        1.41536531 [mEh]       0.88815514 [kcal/mol]       3.71604110 [kJ/mol]
      Exch10(S^2)                   1.41419440 [mEh]       0.88742038 [kcal/mol]       3.71296687 [kJ/mol]

    Induction                      -0.25277265 [mEh]      -0.15861723 [kcal/mol]      -0.66365451 [kJ/mol]
      Ind20,r                      -0.58426190 [mEh]      -0.36662988 [kcal/mol]      -1.53397940 [kJ/mol]
      Exch-Ind20,r                  0.42388282 [mEh]       0.26599049 [kcal/mol]       1.11290420 [kJ/mol]
      delta HF,r (2)               -0.09239358 [mEh]      -0.05797785 [kcal/mol]      -0.24257931 [kJ/mol]

    Dispersion                     -2.77122016 [mEh]      -1.73896691 [kcal/mol]      -7.27583753 [kJ/mol]
      Disp20                       -2.93239898 [mEh]      -1.84010814 [kcal/mol]      -7.69901246 [kJ/mol]
      Exch-Disp20                   0.16117882 [mEh]       0.10114124 [kcal/mol]       0.42317493 [kJ/mol]
      Disp20 (SS)                  -1.46619949 [mEh]      -0.92005407 [kcal/mol]      -3.84950623 [kJ/mol]
      Disp20 (OS)                  -1.46619949 [mEh]      -0.92005407 [kcal/mol]      -3.84950623 [kJ/mol]
      Exch-Disp20 (SS)              0.10447528 [mEh]       0.06555923 [kcal/mol]       0.27429982 [kJ/mol]
      Exch-Disp20 (OS)              0.05670353 [mEh]       0.03558200 [kcal/mol]       0.14887511 [kJ/mol]

  Total HF                          1.16036330 [mEh]       0.72813896 [kcal/mol]       3.04653342 [kJ/mol]
  Total SAPT0                      -1.61085686 [mEh]      -1.01082794 [kcal/mol]      -4.22930412 [kJ/mol]

  Special recipe for scaled SAPT0 (see Manual):
    Electrostatics sSAPT0          -0.00222936 [mEh]      -0.00139894 [kcal/mol]      -0.00585317 [kJ/mol]
    Exchange sSAPT0                 1.41536531 [mEh]       0.88815514 [kcal/mol]       3.71604110 [kJ/mol]
    Induction sSAPT0               -0.25171890 [mEh]      -0.15795599 [kcal/mol]      -0.66088787 [kJ/mol]
    Dispersion sSAPT0              -2.77081948 [mEh]      -1.73871547 [kcal/mol]      -7.27478553 [kJ/mol]
  Total sSAPT0                     -1.60940242 [mEh]      -1.00991527 [kcal/mol]      -4.22548548 [kJ/mol]
  --------------------------------------------------------------------------------------------------------

*** Psi4 exiting successfully. Buy a developer a beer!
