                               Psi4 1.4.1 release

  ==> Input File <==

--------------------------------------------------------------------------
# PSI4 file produced by CrystaLattE

# Generated from:               pyrazine.xyz
# Psithon input for N-mer:      2mer-0+269
# Number of atoms per monomer:  [10, 10]
# Number of replicas:           4
# COM priority:                 2.320888627871e-05
# Minimum COM separations:      18.552
# Separation priority:          2.854271381606e-05
# Minimum monomer separations:  17.316
# Cutoff priority:              8.722889094777e-07
# Nuclear repulsion energy:     475.22514983646647

memory 7 GB

molecule Dimer_0_269 {
  N           -1.33084758       0.98032658       0.42627037
  N            3.95377333       0.98032658       0.42627037
  H            3.56713674       4.35218569      -0.94230973
  H           -0.94421098       4.35218569      -0.94230973
  H           -0.94421098      -2.39153253       1.79485047
  H            3.56713674      -2.39153253       1.79485047
  C            2.62292576       2.94097974      -0.42627037
  C            0.00000000       2.94097974      -0.42627037
  C            0.00000000      -0.98032658       1.27881112
  C            2.62292576      -0.98032658       1.27881112
--
  N          -18.95329959     -10.07494920     -27.79187602
  N          -13.66867868     -10.07494920     -27.79187602
  H          -14.05531527      -6.70309009     -29.16045612
  H          -18.56666299      -6.70309009     -29.16045612
  H          -18.56666299     -13.44680831     -26.42329592
  H          -14.05531527     -13.44680831     -26.42329592
  C          -14.99952625      -8.11429604     -28.64441677
  C          -17.62245201      -8.11429604     -28.64441677
  C          -17.62245201     -12.03560236     -26.93933527
  C          -14.99952625     -12.03560236     -26.93933527
units = au
no_com
no_reorient
}

set {
  e_convergence 10
  d_convergence 10
  scf_type df
  mp2_type df
  cc_type df
  freeze_core true
}

energy('sapt0/aug-cc-pvdz')

--------------------------------------------------------------------------

  //              Dimer HF             //
    Molecular point group: c1
  Charge       = 0
  Multiplicity = 1
  Basis Set: AUG-CC-PVDZ
    Blend: AUG-CC-PVDZ
  Basis Set: (AUG-CC-PVDZ AUX)
    Blend: AUG-CC-PVDZ-JKFIT
  @DF-RHF Final Energy:  -525.27988776626557
    Total Energy =                       -525.2798877662655741
  //            Monomer A HF           //
    Molecular point group: c1
  Multiplicity = 1
  Basis Set: AUG-CC-PVDZ
    Blend: AUG-CC-PVDZ
  Basis Set: (AUG-CC-PVDZ AUX)
    Blend: AUG-CC-PVDZ-JKFIT
  @DF-RHF Final Energy:  -262.63994485357347
    Total Energy =                       -262.6399448535734678
  //            Monomer B HF           //
    Molecular point group: c1

    Geometry (in Bohr), charge = 0, multiplicity = 1:

       Center              X                  Y                   Z               Mass
    ------------   -----------------  -----------------  -----------------  -----------------
      Gh(N)          -1.330847580000     0.980326580000     0.426270370000    14.003074004430
      Gh(N)           3.953773330000     0.980326580000     0.426270370000    14.003074004430
      Gh(H)           3.567136740000     4.352185690000    -0.942309730000     1.007825032230
      Gh(H)          -0.944210980000     4.352185690000    -0.942309730000     1.007825032230
      Gh(H)          -0.944210980000    -2.391532530000     1.794850470000     1.007825032230
      Gh(H)           3.567136740000    -2.391532530000     1.794850470000     1.007825032230
      Gh(C)           2.622925760000     2.940979740000    -0.426270370000    12.000000000000
      Gh(C)           0.000000000000     2.940979740000    -0.426270370000    12.000000000000
      Gh(C)           0.000000000000    -0.980326580000     1.278811120000    12.000000000000
      Gh(C)           2.622925760000    -0.980326580000     1.278811120000    12.000000000000
         N          -18.953299590000   -10.074949200000   -27.791876020000    14.003074004430
         N          -13.668678680000   -10.074949200000   -27.791876020000    14.003074004430
         H          -14.055315270000    -6.703090090000   -29.160456120000     1.007825032230
         H          -18.566662990000    -6.703090090000   -29.160456120000     1.007825032230
         H          -18.566662990000   -13.446808310000   -26.423295920000     1.007825032230
         H          -14.055315270000   -13.446808310000   -26.423295920000     1.007825032230
         C          -14.999526250000    -8.114296040000   -28.644416770000    12.000000000000
         C          -17.622452010000    -8.114296040000   -28.644416770000    12.000000000000
         C          -17.622452010000   -12.035602360000   -26.939335270000    12.000000000000
         C          -14.999526250000   -12.035602360000   -26.939335270000    12.000000000000

  Charge       = 0
  Multiplicity = 1
  Basis Set: AUG-CC-PVDZ
    Blend: AUG-CC-PVDZ
  Basis Set: (AUG-CC-PVDZ AUX)
    Blend: AUG-CC-PVDZ-JKFIT

    Orbital Energies [Eh]
    ---------------------

    Doubly Occupied:

       1A    -15.598072     2A    -15.598053     3A    -11.274239
       4A    -11.274194     5A    -11.272975     6A    -11.272969
       7A     -1.313347     8A     -1.224176     9A     -1.076803
      10A     -0.922662    11A     -0.919282    12A     -0.760637
      13A     -0.738402    14A     -0.706214    15A     -0.647687
      16A     -0.580711    17A     -0.574369    18A     -0.497113
      19A     -0.434288    20A     -0.415855    21A     -0.359924

  @DF-RHF Final Energy:  -262.63994485203767

   => Energetics <=

    Nuclear Repulsion Energy =            212.5517310423005313
    One-Electron Energy =                -775.4594094958936239
    Two-Electron Energy =                 300.2677336015554488
    Total Energy =                       -262.6399448520376723

  Dipole Moment: [D]
     X:     0.0000      Y:    -0.0000      Z:    -0.0000     Total:     0.0000

    SAPT Results
  --------------------------------------------------------------------------------------------------------
    Electrostatics                  0.00192923 [mEh]       0.00121061 [kcal/mol]       0.00506520 [kJ/mol]
      Elst10,r                      0.00192923 [mEh]       0.00121061 [kcal/mol]       0.00506520 [kJ/mol]

    Exchange                        0.00000000 [mEh]       0.00000000 [kcal/mol]       0.00000000 [kJ/mol]
      Exch10                        0.00000000 [mEh]       0.00000000 [kcal/mol]       0.00000000 [kJ/mol]
      Exch10(S^2)                   0.00000000 [mEh]       0.00000000 [kcal/mol]       0.00000000 [kJ/mol]

    Induction                       0.00001011 [mEh]       0.00000635 [kcal/mol]       0.00002655 [kJ/mol]
      Ind20,r                      -0.00000183 [mEh]      -0.00000115 [kcal/mol]      -0.00000482 [kJ/mol]
      Exch-Ind20,r                  0.00000000 [mEh]       0.00000000 [kcal/mol]       0.00000000 [kJ/mol]
      delta HF,r (2)                0.00001195 [mEh]       0.00000750 [kcal/mol]       0.00003137 [kJ/mol]

    Dispersion                     -0.00076867 [mEh]      -0.00048235 [kcal/mol]      -0.00201814 [kJ/mol]
      Disp20                       -0.00076867 [mEh]      -0.00048235 [kcal/mol]      -0.00201814 [kJ/mol]
      Exch-Disp20                   0.00000000 [mEh]       0.00000000 [kcal/mol]       0.00000000 [kJ/mol]
      Disp20 (SS)                  -0.00038433 [mEh]      -0.00024117 [kcal/mol]      -0.00100907 [kJ/mol]
      Disp20 (OS)                  -0.00038433 [mEh]      -0.00024117 [kcal/mol]      -0.00100907 [kJ/mol]
      Exch-Disp20 (SS)              0.00000000 [mEh]       0.00000000 [kcal/mol]       0.00000000 [kJ/mol]
      Exch-Disp20 (OS)              0.00000000 [mEh]       0.00000000 [kcal/mol]       0.00000000 [kJ/mol]

  Total HF                          0.00193935 [mEh]       0.00121696 [kcal/mol]       0.00509175 [kJ/mol]
  Total SAPT0                       0.00117068 [mEh]       0.00073461 [kcal/mol]       0.00307361 [kJ/mol]

  Special recipe for scaled SAPT0 (see Manual):
    Electrostatics sSAPT0           0.00192923 [mEh]       0.00121061 [kcal/mol]       0.00506520 [kJ/mol]
    Exchange sSAPT0                 0.00000000 [mEh]       0.00000000 [kcal/mol]       0.00000000 [kJ/mol]
    Induction sSAPT0                0.00001011 [mEh]       0.00000635 [kcal/mol]       0.00002655 [kJ/mol]
    Dispersion sSAPT0              -0.00076867 [mEh]      -0.00048235 [kcal/mol]      -0.00201814 [kJ/mol]
  Total sSAPT0                      0.00117068 [mEh]       0.00073461 [kcal/mol]       0.00307361 [kJ/mol]
  --------------------------------------------------------------------------------------------------------

*** Psi4 exiting successfully. Buy a developer a beer!
