                               Psi4 1.4.1 release

  ==> Input File <==

--------------------------------------------------------------------------
# PSI4 file produced by CrystaLattE

# Generated from:               pyrazine.xyz
# Psithon input for N-mer:      2mer-0+336
# Number of atoms per monomer:  [10, 10]
# Number of replicas:           2
# COM priority:                 1.642094219533e-05
# Minimum COM separations:      20.819
# Separation priority:          2.991687293649e-05
# Minimum monomer separations:  17.046
# Cutoff priority:              9.287274083828e-07
# Nuclear repulsion energy:     470.0456648088659

memory 7 GB

molecule Dimer_0_336 {
  N           -1.33084758       0.98032658       0.42627037
  N            3.95377333       0.98032658       0.42627037
  H            3.56713674       4.35218569      -0.94230973
  H           -0.94421098       4.35218569      -0.94230973
  H           -0.94421098      -2.39153253       1.79485047
  H            3.56713674      -2.39153253       1.79485047
  C            2.62292576       2.94097974      -0.42627037
  C            0.00000000       2.94097974      -0.42627037
  C            0.00000000      -0.98032658       1.27881112
  C            2.62292576      -0.98032658       1.27881112
--
  N           -1.33084758     -32.18550076      21.58988017
  N            3.95377333     -32.18550076      21.58988017
  H            3.56713674     -28.81364165      20.22130007
  H           -0.94421098     -28.81364165      20.22130007
  H           -0.94421098     -35.55735987      22.95846027
  H            3.56713674     -35.55735987      22.95846027
  C            2.62292576     -30.22484760      20.73733942
  C            0.00000000     -30.22484760      20.73733942
  C            0.00000000     -34.14615392      22.44242092
  C            2.62292576     -34.14615392      22.44242092
units = au
no_com
no_reorient
}

set {
  e_convergence 10
  d_convergence 10
  scf_type df
  mp2_type df
  cc_type df
  freeze_core true
}

energy('sapt0/aug-cc-pvdz')

--------------------------------------------------------------------------

  //              Dimer HF             //
    Molecular point group: c1
  Charge       = 0
  Multiplicity = 1
  Basis Set: AUG-CC-PVDZ
    Blend: AUG-CC-PVDZ
  Basis Set: (AUG-CC-PVDZ AUX)
    Blend: AUG-CC-PVDZ-JKFIT
  @DF-RHF Final Energy:  -525.27988495752243
    Total Energy =                       -525.2798849575224267
  //            Monomer A HF           //
    Molecular point group: c1
  Multiplicity = 1
  Basis Set: AUG-CC-PVDZ
    Blend: AUG-CC-PVDZ
  Basis Set: (AUG-CC-PVDZ AUX)
    Blend: AUG-CC-PVDZ-JKFIT
  @DF-RHF Final Energy:  -262.63994485069259
    Total Energy =                       -262.6399448506925864
  //            Monomer B HF           //
    Molecular point group: c1

    Geometry (in Bohr), charge = 0, multiplicity = 1:

       Center              X                  Y                   Z               Mass
    ------------   -----------------  -----------------  -----------------  -----------------
      Gh(N)          -1.330847580000     0.980326580000     0.426270370000    14.003074004430
      Gh(N)           3.953773330000     0.980326580000     0.426270370000    14.003074004430
      Gh(H)           3.567136740000     4.352185690000    -0.942309730000     1.007825032230
      Gh(H)          -0.944210980000     4.352185690000    -0.942309730000     1.007825032230
      Gh(H)          -0.944210980000    -2.391532530000     1.794850470000     1.007825032230
      Gh(H)           3.567136740000    -2.391532530000     1.794850470000     1.007825032230
      Gh(C)           2.622925760000     2.940979740000    -0.426270370000    12.000000000000
      Gh(C)           0.000000000000     2.940979740000    -0.426270370000    12.000000000000
      Gh(C)           0.000000000000    -0.980326580000     1.278811120000    12.000000000000
      Gh(C)           2.622925760000    -0.980326580000     1.278811120000    12.000000000000
         N           -1.330847580000   -32.185500760000    21.589880170000    14.003074004430
         N            3.953773330000   -32.185500760000    21.589880170000    14.003074004430
         H            3.567136740000   -28.813641650000    20.221300070000     1.007825032230
         H           -0.944210980000   -28.813641650000    20.221300070000     1.007825032230
         H           -0.944210980000   -35.557359870000    22.958460270000     1.007825032230
         H            3.567136740000   -35.557359870000    22.958460270000     1.007825032230
         C            2.622925760000   -30.224847600000    20.737339420000    12.000000000000
         C            0.000000000000   -30.224847600000    20.737339420000    12.000000000000
         C            0.000000000000   -34.146153920000    22.442420920000    12.000000000000
         C            2.622925760000   -34.146153920000    22.442420920000    12.000000000000

  Charge       = 0
  Multiplicity = 1
  Basis Set: AUG-CC-PVDZ
    Blend: AUG-CC-PVDZ
  Basis Set: (AUG-CC-PVDZ AUX)
    Blend: AUG-CC-PVDZ-JKFIT

    Orbital Energies [Eh]
    ---------------------

    Doubly Occupied:

       1A    -15.598072     2A    -15.598053     3A    -11.274239
       4A    -11.274194     5A    -11.272975     6A    -11.272969
       7A     -1.313347     8A     -1.224176     9A     -1.076803
      10A     -0.922662    11A     -0.919282    12A     -0.760637
      13A     -0.738402    14A     -0.706214    15A     -0.647687
      16A     -0.580711    17A     -0.574369    18A     -0.497113
      19A     -0.434288    20A     -0.415855    21A     -0.359924

  @DF-RHF Final Energy:  -262.63994484959221

   => Energetics <=

    Nuclear Repulsion Energy =            212.5517310423005028
    One-Electron Energy =                -775.4594094928814911
    Two-Electron Energy =                 300.2677336009887767
    Total Energy =                       -262.6399448495922115

  Dipole Moment: [D]
     X:     0.0000      Y:    -0.0000      Z:     0.0000     Total:     0.0000

    SAPT Results
  --------------------------------------------------------------------------------------------------------
    Electrostatics                  0.00475811 [mEh]       0.00298576 [kcal/mol]       0.01249242 [kJ/mol]
      Elst10,r                      0.00475811 [mEh]       0.00298576 [kcal/mol]       0.01249242 [kJ/mol]

    Exchange                        0.00000000 [mEh]       0.00000000 [kcal/mol]       0.00000000 [kJ/mol]
      Exch10                        0.00000000 [mEh]       0.00000000 [kcal/mol]       0.00000000 [kJ/mol]
      Exch10(S^2)                   0.00000000 [mEh]       0.00000000 [kcal/mol]       0.00000000 [kJ/mol]

    Induction                      -0.00001535 [mEh]      -0.00000963 [kcal/mol]      -0.00004030 [kJ/mol]
      Ind20,r                      -0.00000832 [mEh]      -0.00000522 [kcal/mol]      -0.00002185 [kJ/mol]
      Exch-Ind20,r                  0.00000000 [mEh]       0.00000000 [kcal/mol]       0.00000000 [kJ/mol]
      delta HF,r (2)               -0.00000703 [mEh]      -0.00000441 [kcal/mol]      -0.00001846 [kJ/mol]

    Dispersion                     -0.00055598 [mEh]      -0.00034888 [kcal/mol]      -0.00145973 [kJ/mol]
      Disp20                       -0.00055598 [mEh]      -0.00034888 [kcal/mol]      -0.00145973 [kJ/mol]
      Exch-Disp20                   0.00000000 [mEh]       0.00000000 [kcal/mol]       0.00000000 [kJ/mol]
      Disp20 (SS)                  -0.00027799 [mEh]      -0.00017444 [kcal/mol]      -0.00072986 [kJ/mol]
      Disp20 (OS)                  -0.00027799 [mEh]      -0.00017444 [kcal/mol]      -0.00072986 [kJ/mol]
      Exch-Disp20 (SS)              0.00000000 [mEh]       0.00000000 [kcal/mol]       0.00000000 [kJ/mol]
      Exch-Disp20 (OS)              0.00000000 [mEh]       0.00000000 [kcal/mol]       0.00000000 [kJ/mol]

  Total HF                          0.00474276 [mEh]       0.00297613 [kcal/mol]       0.01245212 [kJ/mol]
  Total SAPT0                       0.00418678 [mEh]       0.00262724 [kcal/mol]       0.01099239 [kJ/mol]

  Special recipe for scaled SAPT0 (see Manual):
    Electrostatics sSAPT0           0.00475811 [mEh]       0.00298576 [kcal/mol]       0.01249242 [kJ/mol]
    Exchange sSAPT0                 0.00000000 [mEh]       0.00000000 [kcal/mol]       0.00000000 [kJ/mol]
    Induction sSAPT0               -0.00001535 [mEh]      -0.00000963 [kcal/mol]      -0.00004030 [kJ/mol]
    Dispersion sSAPT0              -0.00055598 [mEh]      -0.00034888 [kcal/mol]      -0.00145973 [kJ/mol]
  Total sSAPT0                      0.00418678 [mEh]       0.00262724 [kcal/mol]       0.01099239 [kJ/mol]
  --------------------------------------------------------------------------------------------------------

*** Psi4 exiting successfully. Buy a developer a beer!
