                               Psi4 1.4.1 release

  ==> Input File <==

--------------------------------------------------------------------------
# PSI4 file produced by CrystaLattE

# Generated from:               pyrazine.xyz
# Psithon input for N-mer:      2mer-0+491
# Number of atoms per monomer:  [10, 10]
# Number of replicas:           2
# COM priority:                 1.113627431164e-05
# Minimum COM separations:      23.697
# Separation priority:          1.862532201738e-05
# Minimum monomer separations:  19.963
# Cutoff priority:              4.937097684031e-07
# Nuclear repulsion energy:     464.56021246799094

memory 7 GB

molecule Dimer_0_491 {
  N           -1.33084758       0.98032658       0.42627037
  N            3.95377333       0.98032658       0.42627037
  H            3.56713674       4.35218569      -0.94230973
  H           -0.94421098       4.35218569      -0.94230973
  H           -0.94421098      -2.39153253       1.79485047
  H            3.56713674      -2.39153253       1.79485047
  C            2.62292576       2.94097974      -0.42627037
  C            0.00000000       2.94097974      -0.42627037
  C            0.00000000      -0.98032658       1.27881112
  C            2.62292576      -0.98032658       1.27881112
--
  N           -1.33084758     -43.24077654       7.48080697
  N            3.95377333     -43.24077654       7.48080697
  H            3.56713674     -39.86891742       6.11222687
  H           -0.94421098     -39.86891742       6.11222687
  H           -0.94421098     -46.61263565       8.84938707
  H            3.56713674     -46.61263565       8.84938707
  C            2.62292576     -41.28012338       6.62826622
  C            0.00000000     -41.28012338       6.62826622
  C            0.00000000     -45.20142970       8.33334772
  C            2.62292576     -45.20142970       8.33334772
units = au
no_com
no_reorient
}

set {
  e_convergence 10
  d_convergence 10
  scf_type df
  mp2_type df
  cc_type df
  freeze_core true
}

energy('sapt0/aug-cc-pvdz')

--------------------------------------------------------------------------

  //              Dimer HF             //
    Molecular point group: c1
  Charge       = 0
  Multiplicity = 1
  Basis Set: AUG-CC-PVDZ
    Blend: AUG-CC-PVDZ
  Basis Set: (AUG-CC-PVDZ AUX)
    Blend: AUG-CC-PVDZ-JKFIT
  @DF-RHF Final Energy:  -525.27988732273195
    Total Energy =                       -525.2798873227319518
  //            Monomer A HF           //
    Molecular point group: c1
  Multiplicity = 1
  Basis Set: AUG-CC-PVDZ
    Blend: AUG-CC-PVDZ
  Basis Set: (AUG-CC-PVDZ AUX)
    Blend: AUG-CC-PVDZ-JKFIT
  @DF-RHF Final Energy:  -262.63994485263333
    Total Energy =                       -262.6399448526333344
  //            Monomer B HF           //
    Molecular point group: c1

    Geometry (in Bohr), charge = 0, multiplicity = 1:

       Center              X                  Y                   Z               Mass
    ------------   -----------------  -----------------  -----------------  -----------------
      Gh(N)          -1.330847580000     0.980326580000     0.426270370000    14.003074004430
      Gh(N)           3.953773330000     0.980326580000     0.426270370000    14.003074004430
      Gh(H)           3.567136740000     4.352185690000    -0.942309730000     1.007825032230
      Gh(H)          -0.944210980000     4.352185690000    -0.942309730000     1.007825032230
      Gh(H)          -0.944210980000    -2.391532530000     1.794850470000     1.007825032230
      Gh(H)           3.567136740000    -2.391532530000     1.794850470000     1.007825032230
      Gh(C)           2.622925760000     2.940979740000    -0.426270370000    12.000000000000
      Gh(C)           0.000000000000     2.940979740000    -0.426270370000    12.000000000000
      Gh(C)           0.000000000000    -0.980326580000     1.278811120000    12.000000000000
      Gh(C)           2.622925760000    -0.980326580000     1.278811120000    12.000000000000
         N           -1.330847580000   -43.240776540000     7.480806970000    14.003074004430
         N            3.953773330000   -43.240776540000     7.480806970000    14.003074004430
         H            3.567136740000   -39.868917420000     6.112226870000     1.007825032230
         H           -0.944210980000   -39.868917420000     6.112226870000     1.007825032230
         H           -0.944210980000   -46.612635650000     8.849387070000     1.007825032230
         H            3.567136740000   -46.612635650000     8.849387070000     1.007825032230
         C            2.622925760000   -41.280123380000     6.628266220000    12.000000000000
         C            0.000000000000   -41.280123380000     6.628266220000    12.000000000000
         C            0.000000000000   -45.201429700000     8.333347720000    12.000000000000
         C            2.622925760000   -45.201429700000     8.333347720000    12.000000000000

  Charge       = 0
  Multiplicity = 1
  Basis Set: AUG-CC-PVDZ
    Blend: AUG-CC-PVDZ
  Basis Set: (AUG-CC-PVDZ AUX)
    Blend: AUG-CC-PVDZ-JKFIT

    Orbital Energies [Eh]
    ---------------------

    Doubly Occupied:

       1A    -15.598072     2A    -15.598053     3A    -11.274239
       4A    -11.274194     5A    -11.272975     6A    -11.272969
       7A     -1.313347     8A     -1.224176     9A     -1.076803
      10A     -0.922662    11A     -0.919282    12A     -0.760637
      13A     -0.738402    14A     -0.706214    15A     -0.647687
      16A     -0.580711    17A     -0.574369    18A     -0.497113
      19A     -0.434288    20A     -0.415855    21A     -0.359924

  @DF-RHF Final Energy:  -262.63994485502991

   => Energetics <=

    Nuclear Repulsion Energy =            212.5517309915697695
    One-Electron Energy =                -775.4594094163402360
    Two-Electron Energy =                 300.2677335697405283
    Total Energy =                       -262.6399448550299098

  Dipole Moment: [D]
     X:     0.0000      Y:    -0.0000      Z:     0.0000     Total:     0.0000

    SAPT Results
  --------------------------------------------------------------------------------------------------------
    Electrostatics                  0.00238874 [mEh]       0.00149896 [kcal/mol]       0.00627164 [kJ/mol]
      Elst10,r                      0.00238874 [mEh]       0.00149896 [kcal/mol]       0.00627164 [kJ/mol]

    Exchange                        0.00000000 [mEh]       0.00000000 [kcal/mol]       0.00000000 [kJ/mol]
      Exch10                        0.00000000 [mEh]       0.00000000 [kcal/mol]       0.00000000 [kJ/mol]
      Exch10(S^2)                   0.00000000 [mEh]       0.00000000 [kcal/mol]       0.00000000 [kJ/mol]

    Induction                      -0.00000381 [mEh]      -0.00000239 [kcal/mol]      -0.00001000 [kJ/mol]
      Ind20,r                      -0.00000274 [mEh]      -0.00000172 [kcal/mol]      -0.00000720 [kJ/mol]
      Exch-Ind20,r                  0.00000000 [mEh]       0.00000000 [kcal/mol]       0.00000000 [kJ/mol]
      delta HF,r (2)               -0.00000107 [mEh]      -0.00000067 [kcal/mol]      -0.00000280 [kJ/mol]

    Dispersion                     -0.00024473 [mEh]      -0.00015357 [kcal/mol]      -0.00064255 [kJ/mol]
      Disp20                       -0.00024473 [mEh]      -0.00015357 [kcal/mol]      -0.00064255 [kJ/mol]
      Exch-Disp20                   0.00000000 [mEh]       0.00000000 [kcal/mol]       0.00000000 [kJ/mol]
      Disp20 (SS)                  -0.00012237 [mEh]      -0.00007679 [kcal/mol]      -0.00032128 [kJ/mol]
      Disp20 (OS)                  -0.00012237 [mEh]      -0.00007679 [kcal/mol]      -0.00032128 [kJ/mol]
      Exch-Disp20 (SS)              0.00000000 [mEh]       0.00000000 [kcal/mol]       0.00000000 [kJ/mol]
      Exch-Disp20 (OS)              0.00000000 [mEh]       0.00000000 [kcal/mol]       0.00000000 [kJ/mol]

  Total HF                          0.00238493 [mEh]       0.00149657 [kcal/mol]       0.00626164 [kJ/mol]
  Total SAPT0                       0.00214020 [mEh]       0.00134299 [kcal/mol]       0.00561909 [kJ/mol]

  Special recipe for scaled SAPT0 (see Manual):
    Electrostatics sSAPT0           0.00238874 [mEh]       0.00149896 [kcal/mol]       0.00627164 [kJ/mol]
    Exchange sSAPT0                 0.00000000 [mEh]       0.00000000 [kcal/mol]       0.00000000 [kJ/mol]
    Induction sSAPT0               -0.00000381 [mEh]      -0.00000239 [kcal/mol]      -0.00001000 [kJ/mol]
    Dispersion sSAPT0              -0.00024473 [mEh]      -0.00015357 [kcal/mol]      -0.00064255 [kJ/mol]
  Total sSAPT0                      0.00214020 [mEh]       0.00134299 [kcal/mol]       0.00561909 [kJ/mol]
  --------------------------------------------------------------------------------------------------------

*** Psi4 exiting successfully. Buy a developer a beer!
