                               Psi4 1.4.1 release

  ==> Input File <==

--------------------------------------------------------------------------
# PSI4 file produced by CrystaLattE

# Generated from:               pyrazine.xyz
# Psithon input for N-mer:      2mer-0+104
# Number of atoms per monomer:  [10, 10]
# Number of replicas:           2
# COM priority:                 5.542067990924e-05
# Minimum COM separations:      13.880
# Separation priority:          8.434828104756e-05
# Minimum monomer separations:  12.066
# Cutoff priority:              3.699147498582e-06
# Nuclear repulsion energy:     491.96741198770576

memory 7 GB

molecule Dimer_0_104 {
  N           -1.33084758       0.98032658       0.42627037
  N            3.95377333       0.98032658       0.42627037
  H            3.56713674       4.35218569      -0.94230973
  H           -0.94421098       4.35218569      -0.94230973
  H           -0.94421098      -2.39153253       1.79485047
  H            3.56713674      -2.39153253       1.79485047
  C            2.62292576       2.94097974      -0.42627037
  C            0.00000000       2.94097974      -0.42627037
  C            0.00000000      -0.98032658       1.27881112
  C            2.62292576      -0.98032658       1.27881112
--
  N           -1.33084758     -21.13022498     -13.68280282
  N            3.95377333     -21.13022498     -13.68280282
  H            3.56713674     -17.75836587     -15.05138292
  H           -0.94421098     -17.75836587     -15.05138292
  H           -0.94421098     -24.50208409     -12.31422272
  H            3.56713674     -24.50208409     -12.31422272
  C            2.62292576     -19.16957182     -14.53534357
  C            0.00000000     -19.16957182     -14.53534357
  C            0.00000000     -23.09087814     -12.83026208
  C            2.62292576     -23.09087814     -12.83026208
units = au
no_com
no_reorient
}

set {
  e_convergence 10
  d_convergence 10
  scf_type df
  mp2_type df
  cc_type df
  freeze_core true
}

energy('sapt0/aug-cc-pvdz')

--------------------------------------------------------------------------

  //              Dimer HF             //
    Molecular point group: c1
  Charge       = 0
  Multiplicity = 1
  Basis Set: AUG-CC-PVDZ
    Blend: AUG-CC-PVDZ
  Basis Set: (AUG-CC-PVDZ AUX)
    Blend: AUG-CC-PVDZ-JKFIT
  @DF-RHF Final Energy:  -525.27989497399562
    Total Energy =                       -525.2798949739956242
  //            Monomer A HF           //
    Molecular point group: c1
  Multiplicity = 1
  Basis Set: AUG-CC-PVDZ
    Blend: AUG-CC-PVDZ
  Basis Set: (AUG-CC-PVDZ AUX)
    Blend: AUG-CC-PVDZ-JKFIT
  @DF-RHF Final Energy:  -262.63994487670237
    Total Energy =                       -262.6399448767023728
  //            Monomer B HF           //
    Molecular point group: c1

    Geometry (in Bohr), charge = 0, multiplicity = 1:

       Center              X                  Y                   Z               Mass
    ------------   -----------------  -----------------  -----------------  -----------------
      Gh(N)          -1.330847580000     0.980326580000     0.426270370000    14.003074004430
      Gh(N)           3.953773330000     0.980326580000     0.426270370000    14.003074004430
      Gh(H)           3.567136740000     4.352185690000    -0.942309730000     1.007825032230
      Gh(H)          -0.944210980000     4.352185690000    -0.942309730000     1.007825032230
      Gh(H)          -0.944210980000    -2.391532530000     1.794850470000     1.007825032230
      Gh(H)           3.567136740000    -2.391532530000     1.794850470000     1.007825032230
      Gh(C)           2.622925760000     2.940979740000    -0.426270370000    12.000000000000
      Gh(C)           0.000000000000     2.940979740000    -0.426270370000    12.000000000000
      Gh(C)           0.000000000000    -0.980326580000     1.278811120000    12.000000000000
      Gh(C)           2.622925760000    -0.980326580000     1.278811120000    12.000000000000
         N           -1.330847580000   -21.130224980000   -13.682802820000    14.003074004430
         N            3.953773330000   -21.130224980000   -13.682802820000    14.003074004430
         H            3.567136740000   -17.758365870000   -15.051382920000     1.007825032230
         H           -0.944210980000   -17.758365870000   -15.051382920000     1.007825032230
         H           -0.944210980000   -24.502084090000   -12.314222720000     1.007825032230
         H            3.567136740000   -24.502084090000   -12.314222720000     1.007825032230
         C            2.622925760000   -19.169571820000   -14.535343570000    12.000000000000
         C            0.000000000000   -19.169571820000   -14.535343570000    12.000000000000
         C            0.000000000000   -23.090878140000   -12.830262080000    12.000000000000
         C            2.622925760000   -23.090878140000   -12.830262080000    12.000000000000

  Charge       = 0
  Multiplicity = 1
  Basis Set: AUG-CC-PVDZ
    Blend: AUG-CC-PVDZ
  Basis Set: (AUG-CC-PVDZ AUX)
    Blend: AUG-CC-PVDZ-JKFIT

    Orbital Energies [Eh]
    ---------------------

    Doubly Occupied:

       1A    -15.598072     2A    -15.598053     3A    -11.274239
       4A    -11.274194     5A    -11.272975     6A    -11.272969
       7A     -1.313347     8A     -1.224176     9A     -1.076803
      10A     -0.922662    11A     -0.919282    12A     -0.760637
      13A     -0.738402    14A     -0.706214    15A     -0.647687
      16A     -0.580711    17A     -0.574369    18A     -0.497113
      19A     -0.434288    20A     -0.415855    21A     -0.359924

  @DF-RHF Final Energy:  -262.63994487695612

   => Energetics <=

    Nuclear Repulsion Energy =            212.5517311104853491
    One-Electron Energy =                -775.4594099074859059
    Two-Electron Energy =                 300.2677339200444635
    Total Energy =                       -262.6399448769561218

  Dipole Moment: [D]
     X:     0.0000      Y:     0.0000      Z:     0.0000     Total:     0.0000

    SAPT Results
  --------------------------------------------------------------------------------------------------------
    Electrostatics                 -0.00520803 [mEh]      -0.00326809 [kcal/mol]      -0.01367368 [kJ/mol]
      Elst10,r                     -0.00520803 [mEh]      -0.00326809 [kcal/mol]      -0.01367368 [kJ/mol]

    Exchange                       -0.00000001 [mEh]      -0.00000001 [kcal/mol]      -0.00000003 [kJ/mol]
      Exch10                       -0.00000001 [mEh]      -0.00000001 [kcal/mol]      -0.00000003 [kJ/mol]
      Exch10(S^2)                  -0.00000001 [mEh]      -0.00000001 [kcal/mol]      -0.00000003 [kJ/mol]

    Induction                      -0.00001230 [mEh]      -0.00000772 [kcal/mol]      -0.00003228 [kJ/mol]
      Ind20,r                      -0.00002529 [mEh]      -0.00001587 [kcal/mol]      -0.00006639 [kJ/mol]
      Exch-Ind20,r                  0.00000002 [mEh]       0.00000002 [kcal/mol]       0.00000006 [kJ/mol]
      delta HF,r (2)                0.00001297 [mEh]       0.00000814 [kcal/mol]       0.00003404 [kJ/mol]

    Dispersion                     -0.00458879 [mEh]      -0.00287951 [kcal/mol]      -0.01204787 [kJ/mol]
      Disp20                       -0.00458879 [mEh]      -0.00287951 [kcal/mol]      -0.01204788 [kJ/mol]
      Exch-Disp20                   0.00000000 [mEh]       0.00000000 [kcal/mol]       0.00000001 [kJ/mol]
      Disp20 (SS)                  -0.00229440 [mEh]      -0.00143976 [kcal/mol]      -0.00602394 [kJ/mol]
      Disp20 (OS)                  -0.00229440 [mEh]      -0.00143976 [kcal/mol]      -0.00602394 [kJ/mol]
      Exch-Disp20 (SS)              0.00000000 [mEh]       0.00000000 [kcal/mol]       0.00000001 [kJ/mol]
      Exch-Disp20 (OS)              0.00000000 [mEh]       0.00000000 [kcal/mol]       0.00000000 [kJ/mol]

  Total HF                         -0.00522034 [mEh]      -0.00327581 [kcal/mol]      -0.01370599 [kJ/mol]
  Total SAPT0                      -0.00980913 [mEh]      -0.00615532 [kcal/mol]      -0.02575386 [kJ/mol]

  Special recipe for scaled SAPT0 (see Manual):
    Electrostatics sSAPT0          -0.00520803 [mEh]      -0.00326809 [kcal/mol]      -0.01367368 [kJ/mol]
    Exchange sSAPT0                -0.00000001 [mEh]      -0.00000001 [kcal/mol]      -0.00000003 [kJ/mol]
    Induction sSAPT0               -0.00001230 [mEh]      -0.00000772 [kcal/mol]      -0.00003228 [kJ/mol]
    Dispersion sSAPT0              -0.00458879 [mEh]      -0.00287951 [kcal/mol]      -0.01204787 [kJ/mol]
  Total sSAPT0                     -0.00980913 [mEh]      -0.00615532 [kcal/mol]      -0.02575386 [kJ/mol]
  --------------------------------------------------------------------------------------------------------

*** Psi4 exiting successfully. Buy a developer a beer!
