                               Psi4 1.4.1 release

  ==> Input File <==

--------------------------------------------------------------------------
# PSI4 file produced by CrystaLattE

# Generated from:               pyrazine.xyz
# Psithon input for N-mer:      2mer-0+157
# Number of atoms per monomer:  [10, 10]
# Number of replicas:           2
# COM priority:                 4.450558902470e-05
# Minimum COM separations:      14.932
# Separation priority:          5.460712311648e-05
# Minimum monomer separations:  13.948
# Cutoff priority:              2.071726379972e-06
# Nuclear repulsion energy:     487.1586493177323

memory 7 GB

molecule Dimer_0_157 {
  N           -1.33084758       0.98032658       0.42627037
  N            3.95377333       0.98032658       0.42627037
  H            3.56713674       4.35218569      -0.94230973
  H           -0.94421098       4.35218569      -0.94230973
  H           -0.94421098      -2.39153253       1.79485047
  H            3.56713674      -2.39153253       1.79485047
  C            2.62292576       2.94097974      -0.42627037
  C            0.00000000       2.94097974      -0.42627037
  C            0.00000000      -0.98032658       1.27881112
  C            2.62292576      -0.98032658       1.27881112
--
  N           -1.33084758       0.98032658     -27.79187602
  N            3.95377333       0.98032658     -27.79187602
  H            3.56713674       4.35218569     -29.16045612
  H           -0.94421098       4.35218569     -29.16045612
  H           -0.94421098      -2.39153253     -26.42329592
  H            3.56713674      -2.39153253     -26.42329592
  C            2.62292576       2.94097974     -28.64441677
  C            0.00000000       2.94097974     -28.64441677
  C            0.00000000      -0.98032658     -26.93933527
  C            2.62292576      -0.98032658     -26.93933527
units = au
no_com
no_reorient
}

set {
  e_convergence 10
  d_convergence 10
  scf_type df
  mp2_type df
  cc_type df
  freeze_core true
}

energy('sapt0/aug-cc-pvdz')

--------------------------------------------------------------------------

  //              Dimer HF             //
    Molecular point group: c1
  Charge       = 0
  Multiplicity = 1
  Basis Set: AUG-CC-PVDZ
    Blend: AUG-CC-PVDZ
  Basis Set: (AUG-CC-PVDZ AUX)
    Blend: AUG-CC-PVDZ-JKFIT
  @DF-RHF Final Energy:  -525.27988930746199
    Total Energy =                       -525.2798893074619855
  //            Monomer A HF           //
    Molecular point group: c1
  Multiplicity = 1
  Basis Set: AUG-CC-PVDZ
    Blend: AUG-CC-PVDZ
  Basis Set: (AUG-CC-PVDZ AUX)
    Blend: AUG-CC-PVDZ-JKFIT
  @DF-RHF Final Energy:  -262.63994485312230
    Total Energy =                       -262.6399448531223015
  //            Monomer B HF           //
    Molecular point group: c1

    Geometry (in Bohr), charge = 0, multiplicity = 1:

       Center              X                  Y                   Z               Mass
    ------------   -----------------  -----------------  -----------------  -----------------
      Gh(N)          -1.330847580000     0.980326580000     0.426270370000    14.003074004430
      Gh(N)           3.953773330000     0.980326580000     0.426270370000    14.003074004430
      Gh(H)           3.567136740000     4.352185690000    -0.942309730000     1.007825032230
      Gh(H)          -0.944210980000     4.352185690000    -0.942309730000     1.007825032230
      Gh(H)          -0.944210980000    -2.391532530000     1.794850470000     1.007825032230
      Gh(H)           3.567136740000    -2.391532530000     1.794850470000     1.007825032230
      Gh(C)           2.622925760000     2.940979740000    -0.426270370000    12.000000000000
      Gh(C)           0.000000000000     2.940979740000    -0.426270370000    12.000000000000
      Gh(C)           0.000000000000    -0.980326580000     1.278811120000    12.000000000000
      Gh(C)           2.622925760000    -0.980326580000     1.278811120000    12.000000000000
         N           -1.330847580000     0.980326580000   -27.791876020000    14.003074004430
         N            3.953773330000     0.980326580000   -27.791876020000    14.003074004430
         H            3.567136740000     4.352185690000   -29.160456120000     1.007825032230
         H           -0.944210980000     4.352185690000   -29.160456120000     1.007825032230
         H           -0.944210980000    -2.391532530000   -26.423295920000     1.007825032230
         H            3.567136740000    -2.391532530000   -26.423295920000     1.007825032230
         C            2.622925760000     2.940979740000   -28.644416770000    12.000000000000
         C            0.000000000000     2.940979740000   -28.644416770000    12.000000000000
         C            0.000000000000    -0.980326580000   -26.939335270000    12.000000000000
         C            2.622925760000    -0.980326580000   -26.939335270000    12.000000000000

  Charge       = 0
  Multiplicity = 1
  Basis Set: AUG-CC-PVDZ
    Blend: AUG-CC-PVDZ
  Basis Set: (AUG-CC-PVDZ AUX)
    Blend: AUG-CC-PVDZ-JKFIT

    Orbital Energies [Eh]
    ---------------------

    Doubly Occupied:

       1A    -15.598072     2A    -15.598053     3A    -11.274239
       4A    -11.274194     5A    -11.272975     6A    -11.272969
       7A     -1.313347     8A     -1.224176     9A     -1.076803
      10A     -0.922662    11A     -0.919282    12A     -0.760637
      13A     -0.738402    14A     -0.706214    15A     -0.647687
      16A     -0.580711    17A     -0.574369    18A     -0.497113
      19A     -0.434288    20A     -0.415855    21A     -0.359924

  @DF-RHF Final Energy:  -262.63994485239027

   => Energetics <=

    Nuclear Repulsion Energy =            212.5517310423005313
    One-Electron Energy =                -775.4594094777488635
    Two-Electron Energy =                 300.2677335830580887
    Total Energy =                       -262.6399448523902720

  Dipole Moment: [D]
     X:     0.0000      Y:     0.0000      Z:    -0.0000     Total:     0.0000

    SAPT Results
  --------------------------------------------------------------------------------------------------------
    Electrostatics                  0.00039728 [mEh]       0.00024930 [kcal/mol]       0.00104305 [kJ/mol]
      Elst10,r                      0.00039728 [mEh]       0.00024930 [kcal/mol]       0.00104305 [kJ/mol]

    Exchange                       -0.00000000 [mEh]      -0.00000000 [kcal/mol]      -0.00000000 [kJ/mol]
      Exch10                       -0.00000000 [mEh]      -0.00000000 [kcal/mol]      -0.00000000 [kJ/mol]
      Exch10(S^2)                  -0.00000000 [mEh]      -0.00000000 [kcal/mol]      -0.00000000 [kJ/mol]

    Induction                       0.00000077 [mEh]       0.00000049 [kcal/mol]       0.00000203 [kJ/mol]
      Ind20,r                      -0.00000845 [mEh]      -0.00000530 [kcal/mol]      -0.00002218 [kJ/mol]
      Exch-Ind20,r                  0.00000000 [mEh]       0.00000000 [kcal/mol]       0.00000000 [kJ/mol]
      delta HF,r (2)                0.00000922 [mEh]       0.00000579 [kcal/mol]       0.00002421 [kJ/mol]

    Dispersion                     -0.00275773 [mEh]      -0.00173050 [kcal/mol]      -0.00724042 [kJ/mol]
      Disp20                       -0.00275773 [mEh]      -0.00173050 [kcal/mol]      -0.00724042 [kJ/mol]
      Exch-Disp20                   0.00000000 [mEh]       0.00000000 [kcal/mol]       0.00000000 [kJ/mol]
      Disp20 (SS)                  -0.00137887 [mEh]      -0.00086525 [kcal/mol]      -0.00362021 [kJ/mol]
      Disp20 (OS)                  -0.00137887 [mEh]      -0.00086525 [kcal/mol]      -0.00362021 [kJ/mol]
      Exch-Disp20 (SS)              0.00000000 [mEh]       0.00000000 [kcal/mol]       0.00000000 [kJ/mol]
      Exch-Disp20 (OS)              0.00000000 [mEh]       0.00000000 [kcal/mol]       0.00000000 [kJ/mol]

  Total HF                          0.00039805 [mEh]       0.00024978 [kcal/mol]       0.00104508 [kJ/mol]
  Total SAPT0                      -0.00235968 [mEh]      -0.00148072 [kcal/mol]      -0.00619534 [kJ/mol]

  Special recipe for scaled SAPT0 (see Manual):
    Electrostatics sSAPT0           0.00039728 [mEh]       0.00024930 [kcal/mol]       0.00104305 [kJ/mol]
    Exchange sSAPT0                -0.00000000 [mEh]      -0.00000000 [kcal/mol]      -0.00000000 [kJ/mol]
    Induction sSAPT0                0.00000077 [mEh]       0.00000049 [kcal/mol]       0.00000203 [kJ/mol]
    Dispersion sSAPT0              -0.00275773 [mEh]      -0.00173050 [kcal/mol]      -0.00724042 [kJ/mol]
  Total sSAPT0                     -0.00235968 [mEh]      -0.00148072 [kcal/mol]      -0.00619534 [kJ/mol]
  --------------------------------------------------------------------------------------------------------

*** Psi4 exiting successfully. Buy a developer a beer!
