                               Psi4 1.4.1 release

  ==> Input File <==

--------------------------------------------------------------------------
# PSI4 file produced by CrystaLattE

# Generated from:               pyrazine.xyz
# Psithon input for N-mer:      2mer-0+322
# Number of atoms per monomer:  [10, 10]
# Number of replicas:           8
# COM priority:                 1.581344251804e-05
# Minimum COM separations:      21.083
# Separation priority:          2.931917298163e-05
# Minimum monomer separations:  17.161
# Cutoff priority:              9.040704779154e-07
# Nuclear repulsion energy:     469.44134849073083

memory 7 GB

molecule Dimer_0_322 {
  N           -1.33084758       0.98032658       0.42627037
  N            3.95377333       0.98032658       0.42627037
  H            3.56713674       4.35218569      -0.94230973
  H           -0.94421098       4.35218569      -0.94230973
  H           -0.94421098      -2.39153253       1.79485047
  H            3.56713674      -2.39153253       1.79485047
  C            2.62292576       2.94097974      -0.42627037
  C            0.00000000       2.94097974      -0.42627037
  C            0.00000000      -0.98032658       1.27881112
  C            2.62292576      -0.98032658       1.27881112
--
  N          -10.14207358     -37.71313865      -3.10099793
  N           -4.85745267     -37.71313865      -3.10099793
  H           -9.75543698     -41.08499776      -4.46957803
  H           -9.75543698     -34.34127953      -1.73241783
  H           -5.24408927     -41.08499776      -4.46957803
  H           -5.24408927     -34.34127953      -1.73241783
  C           -8.81122601     -39.67379181      -3.95353867
  C           -8.81122601     -35.75248549      -2.24845718
  C           -6.18830025     -39.67379181      -3.95353867
  C           -6.18830025     -35.75248549      -2.24845718
units = au
no_com
no_reorient
}

set {
  e_convergence 10
  d_convergence 10
  scf_type df
  mp2_type df
  cc_type df
  freeze_core true
}

energy('sapt0/aug-cc-pvdz')

--------------------------------------------------------------------------

  //              Dimer HF             //
    Molecular point group: c1
  Charge       = 0
  Multiplicity = 1
  Basis Set: AUG-CC-PVDZ
    Blend: AUG-CC-PVDZ
  Basis Set: (AUG-CC-PVDZ AUX)
    Blend: AUG-CC-PVDZ-JKFIT
  @DF-RHF Final Energy:  -525.27988657546314
    Total Energy =                       -525.2798865754631379
  //            Monomer A HF           //
    Molecular point group: c1
  Multiplicity = 1
  Basis Set: AUG-CC-PVDZ
    Blend: AUG-CC-PVDZ
  Basis Set: (AUG-CC-PVDZ AUX)
    Blend: AUG-CC-PVDZ-JKFIT
  @DF-RHF Final Energy:  -262.63994485021146
    Total Energy =                       -262.6399448502114637
  //            Monomer B HF           //
    Molecular point group: c1

    Geometry (in Bohr), charge = 0, multiplicity = 1:

       Center              X                  Y                   Z               Mass
    ------------   -----------------  -----------------  -----------------  -----------------
      Gh(N)          -1.330847580000     0.980326580000     0.426270370000    14.003074004430
      Gh(N)           3.953773330000     0.980326580000     0.426270370000    14.003074004430
      Gh(H)           3.567136740000     4.352185690000    -0.942309730000     1.007825032230
      Gh(H)          -0.944210980000     4.352185690000    -0.942309730000     1.007825032230
      Gh(H)          -0.944210980000    -2.391532530000     1.794850470000     1.007825032230
      Gh(H)           3.567136740000    -2.391532530000     1.794850470000     1.007825032230
      Gh(C)           2.622925760000     2.940979740000    -0.426270370000    12.000000000000
      Gh(C)           0.000000000000     2.940979740000    -0.426270370000    12.000000000000
      Gh(C)           0.000000000000    -0.980326580000     1.278811120000    12.000000000000
      Gh(C)           2.622925760000    -0.980326580000     1.278811120000    12.000000000000
         N          -10.142073580000   -37.713138650000    -3.100997930000    14.003074004430
         N           -4.857452670000   -37.713138650000    -3.100997930000    14.003074004430
         H           -9.755436980000   -41.084997760000    -4.469578030000     1.007825032230
         H           -9.755436980000   -34.341279530000    -1.732417830000     1.007825032230
         H           -5.244089270000   -41.084997760000    -4.469578030000     1.007825032230
         H           -5.244089270000   -34.341279530000    -1.732417830000     1.007825032230
         C           -8.811226010000   -39.673791810000    -3.953538670000    12.000000000000
         C           -8.811226010000   -35.752485490000    -2.248457180000    12.000000000000
         C           -6.188300250000   -39.673791810000    -3.953538670000    12.000000000000
         C           -6.188300250000   -35.752485490000    -2.248457180000    12.000000000000

  Charge       = 0
  Multiplicity = 1
  Basis Set: AUG-CC-PVDZ
    Blend: AUG-CC-PVDZ
  Basis Set: (AUG-CC-PVDZ AUX)
    Blend: AUG-CC-PVDZ-JKFIT

    Orbital Energies [Eh]
    ---------------------

    Doubly Occupied:

       1A    -15.598072     2A    -15.598053     3A    -11.274239
       4A    -11.274194     5A    -11.272975     6A    -11.272969
       7A     -1.313347     8A     -1.224176     9A     -1.076803
      10A     -0.922662    11A     -0.919282    12A     -0.760637
      13A     -0.738402    14A     -0.706214    15A     -0.647687
      16A     -0.580711    17A     -0.574369    18A     -0.497113
      19A     -0.434288    20A     -0.415855    21A     -0.359924

  @DF-RHF Final Energy:  -262.63994485178370

   => Energetics <=

    Nuclear Repulsion Energy =            212.5517310923821128
    One-Electron Energy =                -775.4594096020557572
    Two-Electron Energy =                 300.2677336578898917
    Total Energy =                       -262.6399448517836959

  Dipole Moment: [D]
     X:     0.0000      Y:    -0.0000      Z:    -0.0000     Total:     0.0000

    SAPT Results
  --------------------------------------------------------------------------------------------------------
    Electrostatics                  0.00313353 [mEh]       0.00196632 [kcal/mol]       0.00822708 [kJ/mol]
      Elst10,r                      0.00313353 [mEh]       0.00196632 [kcal/mol]       0.00822708 [kJ/mol]

    Exchange                        0.00000000 [mEh]       0.00000000 [kcal/mol]       0.00000000 [kJ/mol]
      Exch10                        0.00000000 [mEh]       0.00000000 [kcal/mol]       0.00000000 [kJ/mol]
      Exch10(S^2)                   0.00000000 [mEh]       0.00000000 [kcal/mol]       0.00000000 [kJ/mol]

    Induction                      -0.00000700 [mEh]      -0.00000439 [kcal/mol]      -0.00001837 [kJ/mol]
      Ind20,r                      -0.00000565 [mEh]      -0.00000354 [kcal/mol]      -0.00001482 [kJ/mol]
      Exch-Ind20,r                  0.00000000 [mEh]       0.00000000 [kcal/mol]       0.00000000 [kJ/mol]
      delta HF,r (2)               -0.00000135 [mEh]      -0.00000085 [kcal/mol]      -0.00000355 [kJ/mol]

    Dispersion                     -0.00048484 [mEh]      -0.00030424 [kcal/mol]      -0.00127296 [kJ/mol]
      Disp20                       -0.00048484 [mEh]      -0.00030424 [kcal/mol]      -0.00127296 [kJ/mol]
      Exch-Disp20                   0.00000000 [mEh]       0.00000000 [kcal/mol]       0.00000000 [kJ/mol]
      Disp20 (SS)                  -0.00024242 [mEh]      -0.00015212 [kcal/mol]      -0.00063648 [kJ/mol]
      Disp20 (OS)                  -0.00024242 [mEh]      -0.00015212 [kcal/mol]      -0.00063648 [kJ/mol]
      Exch-Disp20 (SS)              0.00000000 [mEh]       0.00000000 [kcal/mol]       0.00000000 [kJ/mol]
      Exch-Disp20 (OS)              0.00000000 [mEh]       0.00000000 [kcal/mol]       0.00000000 [kJ/mol]

  Total HF                          0.00312653 [mEh]       0.00196193 [kcal/mol]       0.00820871 [kJ/mol]
  Total SAPT0                       0.00264169 [mEh]       0.00165768 [kcal/mol]       0.00693575 [kJ/mol]

  Special recipe for scaled SAPT0 (see Manual):
    Electrostatics sSAPT0           0.00313353 [mEh]       0.00196632 [kcal/mol]       0.00822708 [kJ/mol]
    Exchange sSAPT0                 0.00000000 [mEh]       0.00000000 [kcal/mol]       0.00000000 [kJ/mol]
    Induction sSAPT0               -0.00000700 [mEh]      -0.00000439 [kcal/mol]      -0.00001837 [kJ/mol]
    Dispersion sSAPT0              -0.00048484 [mEh]      -0.00030424 [kcal/mol]      -0.00127296 [kJ/mol]
  Total sSAPT0                      0.00264169 [mEh]       0.00165768 [kcal/mol]       0.00693575 [kJ/mol]
  --------------------------------------------------------------------------------------------------------

*** Psi4 exiting successfully. Buy a developer a beer!
