                               Psi4 1.4.1 release

  ==> Input File <==

--------------------------------------------------------------------------
# PSI4 file produced by CrystaLattE

# Generated from:               pyrazine.xyz
# Psithon input for N-mer:      2mer-0+182
# Number of atoms per monomer:  [10, 10]
# Number of replicas:           8
# COM priority:                 2.980165626213e-05
# Minimum COM separations:      17.068
# Separation priority:          5.038237989201e-05
# Minimum monomer separations:  14.328
# Cutoff priority:              1.860822310025e-06
# Nuclear repulsion energy:     479.83420277754266

memory 7 GB

molecule Dimer_0_182 {
  N           -1.33084758       0.98032658       0.42627037
  N            3.95377333       0.98032658       0.42627037
  H            3.56713674       4.35218569      -0.94230973
  H           -0.94421098       4.35218569      -0.94230973
  H           -0.94421098      -2.39153253       1.79485047
  H            3.56713674      -2.39153253       1.79485047
  C            2.62292576       2.94097974      -0.42627037
  C            0.00000000       2.94097974      -0.42627037
  C            0.00000000      -0.98032658       1.27881112
  C            2.62292576      -0.98032658       1.27881112
--
  N          -27.76452559      -4.54731131     -17.21007112
  N          -22.47990468      -4.54731131     -17.21007112
  H          -27.37788899      -7.91917042     -18.57865122
  H          -27.37788899      -1.17545220     -15.84149102
  H          -22.86654128      -7.91917042     -18.57865122
  H          -22.86654128      -1.17545220     -15.84149102
  C          -26.43367802      -6.50796447     -18.06261187
  C          -26.43367802      -2.58665815     -16.35753038
  C          -23.81075226      -6.50796447     -18.06261187
  C          -23.81075226      -2.58665815     -16.35753038
units = au
no_com
no_reorient
}

set {
  e_convergence 10
  d_convergence 10
  scf_type df
  mp2_type df
  cc_type df
  freeze_core true
}

energy('sapt0/aug-cc-pvdz')

--------------------------------------------------------------------------

  //              Dimer HF             //
    Molecular point group: c1
  Charge       = 0
  Multiplicity = 1
  Basis Set: AUG-CC-PVDZ
    Blend: AUG-CC-PVDZ
  Basis Set: (AUG-CC-PVDZ AUX)
    Blend: AUG-CC-PVDZ-JKFIT
  @DF-RHF Final Energy:  -525.27988689599749
    Total Energy =                       -525.2798868959974925
  //            Monomer A HF           //
    Molecular point group: c1
  Multiplicity = 1
  Basis Set: AUG-CC-PVDZ
    Blend: AUG-CC-PVDZ
  Basis Set: (AUG-CC-PVDZ AUX)
    Blend: AUG-CC-PVDZ-JKFIT
  @DF-RHF Final Energy:  -262.63994484846017
    Total Energy =                       -262.6399448484601749
  //            Monomer B HF           //
    Molecular point group: c1

    Geometry (in Bohr), charge = 0, multiplicity = 1:

       Center              X                  Y                   Z               Mass
    ------------   -----------------  -----------------  -----------------  -----------------
      Gh(N)          -1.330847580000     0.980326580000     0.426270370000    14.003074004430
      Gh(N)           3.953773330000     0.980326580000     0.426270370000    14.003074004430
      Gh(H)           3.567136740000     4.352185690000    -0.942309730000     1.007825032230
      Gh(H)          -0.944210980000     4.352185690000    -0.942309730000     1.007825032230
      Gh(H)          -0.944210980000    -2.391532530000     1.794850470000     1.007825032230
      Gh(H)           3.567136740000    -2.391532530000     1.794850470000     1.007825032230
      Gh(C)           2.622925760000     2.940979740000    -0.426270370000    12.000000000000
      Gh(C)           0.000000000000     2.940979740000    -0.426270370000    12.000000000000
      Gh(C)           0.000000000000    -0.980326580000     1.278811120000    12.000000000000
      Gh(C)           2.622925760000    -0.980326580000     1.278811120000    12.000000000000
         N          -27.764525590000    -4.547311310000   -17.210071120000    14.003074004430
         N          -22.479904680000    -4.547311310000   -17.210071120000    14.003074004430
         H          -27.377888990000    -7.919170420000   -18.578651220000     1.007825032230
         H          -27.377888990000    -1.175452200000   -15.841491020000     1.007825032230
         H          -22.866541280000    -7.919170420000   -18.578651220000     1.007825032230
         H          -22.866541280000    -1.175452200000   -15.841491020000     1.007825032230
         C          -26.433678020000    -6.507964470000   -18.062611870000    12.000000000000
         C          -26.433678020000    -2.586658150000   -16.357530380000    12.000000000000
         C          -23.810752260000    -6.507964470000   -18.062611870000    12.000000000000
         C          -23.810752260000    -2.586658150000   -16.357530380000    12.000000000000

  Charge       = 0
  Multiplicity = 1
  Basis Set: AUG-CC-PVDZ
    Blend: AUG-CC-PVDZ
  Basis Set: (AUG-CC-PVDZ AUX)
    Blend: AUG-CC-PVDZ-JKFIT

    Orbital Energies [Eh]
    ---------------------

    Doubly Occupied:

       1A    -15.598072     2A    -15.598053     3A    -11.274239
       4A    -11.274194     5A    -11.272975     6A    -11.272969
       7A     -1.313347     8A     -1.224176     9A     -1.076803
      10A     -0.922662    11A     -0.919282    12A     -0.760637
      13A     -0.738402    14A     -0.706214    15A     -0.647687
      16A     -0.580711    17A     -0.574369    18A     -0.497113
      19A     -0.434288    20A     -0.415855    21A     -0.359924

  @DF-RHF Final Energy:  -262.63994484746058

   => Energetics <=

    Nuclear Repulsion Energy =            212.5517311431129031
    One-Electron Energy =                -775.4594096704344111
    Two-Electron Energy =                 300.2677336798609531
    Total Energy =                       -262.6399448474605833

  Dipole Moment: [D]
     X:     0.0000      Y:    -0.0000      Z:    -0.0000     Total:     0.0000

    SAPT Results
  --------------------------------------------------------------------------------------------------------
    Electrostatics                  0.00278745 [mEh]       0.00174915 [kcal/mol]       0.00731845 [kJ/mol]
      Elst10,r                      0.00278745 [mEh]       0.00174915 [kcal/mol]       0.00731845 [kJ/mol]

    Exchange                        0.00000000 [mEh]       0.00000000 [kcal/mol]       0.00000000 [kJ/mol]
      Exch10                        0.00000000 [mEh]       0.00000000 [kcal/mol]       0.00000000 [kJ/mol]
      Exch10(S^2)                   0.00000000 [mEh]       0.00000000 [kcal/mol]       0.00000000 [kJ/mol]

    Induction                       0.00001247 [mEh]       0.00000783 [kcal/mol]       0.00003275 [kJ/mol]
      Ind20,r                      -0.00001307 [mEh]      -0.00000820 [kcal/mol]      -0.00003431 [kJ/mol]
      Exch-Ind20,r                  0.00000000 [mEh]       0.00000000 [kcal/mol]       0.00000000 [kJ/mol]
      delta HF,r (2)                0.00002554 [mEh]       0.00001603 [kcal/mol]       0.00006706 [kJ/mol]

    Dispersion                     -0.00157773 [mEh]      -0.00099004 [kcal/mol]      -0.00414232 [kJ/mol]
      Disp20                       -0.00157773 [mEh]      -0.00099004 [kcal/mol]      -0.00414232 [kJ/mol]
      Exch-Disp20                   0.00000000 [mEh]       0.00000000 [kcal/mol]       0.00000000 [kJ/mol]
      Disp20 (SS)                  -0.00078886 [mEh]      -0.00049502 [kcal/mol]      -0.00207116 [kJ/mol]
      Disp20 (OS)                  -0.00078886 [mEh]      -0.00049502 [kcal/mol]      -0.00207116 [kJ/mol]
      Exch-Disp20 (SS)              0.00000000 [mEh]       0.00000000 [kcal/mol]       0.00000000 [kJ/mol]
      Exch-Disp20 (OS)              0.00000000 [mEh]       0.00000000 [kcal/mol]       0.00000000 [kJ/mol]

  Total HF                          0.00279992 [mEh]       0.00175698 [kcal/mol]       0.00735120 [kJ/mol]
  Total SAPT0                       0.00122220 [mEh]       0.00076694 [kcal/mol]       0.00320888 [kJ/mol]

  Special recipe for scaled SAPT0 (see Manual):
    Electrostatics sSAPT0           0.00278745 [mEh]       0.00174915 [kcal/mol]       0.00731845 [kJ/mol]
    Exchange sSAPT0                 0.00000000 [mEh]       0.00000000 [kcal/mol]       0.00000000 [kJ/mol]
    Induction sSAPT0                0.00001247 [mEh]       0.00000783 [kcal/mol]       0.00003275 [kJ/mol]
    Dispersion sSAPT0              -0.00157773 [mEh]      -0.00099004 [kcal/mol]      -0.00414232 [kJ/mol]
  Total sSAPT0                      0.00122220 [mEh]       0.00076694 [kcal/mol]       0.00320888 [kJ/mol]
  --------------------------------------------------------------------------------------------------------

*** Psi4 exiting successfully. Buy a developer a beer!
