                               Psi4 1.4.1 release

  ==> Input File <==

--------------------------------------------------------------------------
# PSI4 file produced by CrystaLattE

# Generated from:               pyrazine.xyz
# Psithon input for N-mer:      2mer-0+384
# Number of atoms per monomer:  [10, 10]
# Number of replicas:           4
# COM priority:                 1.330639360697e-05
# Minimum COM separations:      22.331
# Separation priority:          2.407639865053e-05
# Minimum monomer separations:  18.326
# Cutoff priority:              6.952196427693e-07
# Nuclear repulsion energy:     466.993322873173

memory 7 GB

molecule Dimer_0_384 {
  N           -1.33084758       0.98032658       0.42627037
  N            3.95377333       0.98032658       0.42627037
  H            3.56713674       4.35218569      -0.94230973
  H           -0.94421098       4.35218569      -0.94230973
  H           -0.94421098      -2.39153253       1.79485047
  H            3.56713674      -2.39153253       1.79485047
  C            2.62292576       2.94097974      -0.42627037
  C            0.00000000       2.94097974      -0.42627037
  C            0.00000000      -0.98032658       1.27881112
  C            2.62292576      -0.98032658       1.27881112
--
  N          -36.57575160     -21.13022498       7.48080697
  N          -31.29113069     -21.13022498       7.48080697
  H          -31.67776728     -17.75836587       6.11222687
  H          -36.18911500     -17.75836587       6.11222687
  H          -36.18911500     -24.50208409       8.84938707
  H          -31.67776728     -24.50208409       8.84938707
  C          -32.62197826     -19.16957182       6.62826622
  C          -35.24490402     -19.16957182       6.62826622
  C          -35.24490402     -23.09087814       8.33334772
  C          -32.62197826     -23.09087814       8.33334772
units = au
no_com
no_reorient
}

set {
  e_convergence 10
  d_convergence 10
  scf_type df
  mp2_type df
  cc_type df
  freeze_core true
}

energy('sapt0/aug-cc-pvdz')

--------------------------------------------------------------------------

  //              Dimer HF             //
    Molecular point group: c1
  Charge       = 0
  Multiplicity = 1
  Basis Set: AUG-CC-PVDZ
    Blend: AUG-CC-PVDZ
  Basis Set: (AUG-CC-PVDZ AUX)
    Blend: AUG-CC-PVDZ-JKFIT
  @DF-RHF Final Energy:  -525.27989198736634
    Total Energy =                       -525.2798919873663408
  //            Monomer A HF           //
    Molecular point group: c1
  Multiplicity = 1
  Basis Set: AUG-CC-PVDZ
    Blend: AUG-CC-PVDZ
  Basis Set: (AUG-CC-PVDZ AUX)
    Blend: AUG-CC-PVDZ-JKFIT
  @DF-RHF Final Energy:  -262.63994485098431
    Total Energy =                       -262.6399448509843069
  //            Monomer B HF           //
    Molecular point group: c1

    Geometry (in Bohr), charge = 0, multiplicity = 1:

       Center              X                  Y                   Z               Mass
    ------------   -----------------  -----------------  -----------------  -----------------
      Gh(N)          -1.330847580000     0.980326580000     0.426270370000    14.003074004430
      Gh(N)           3.953773330000     0.980326580000     0.426270370000    14.003074004430
      Gh(H)           3.567136740000     4.352185690000    -0.942309730000     1.007825032230
      Gh(H)          -0.944210980000     4.352185690000    -0.942309730000     1.007825032230
      Gh(H)          -0.944210980000    -2.391532530000     1.794850470000     1.007825032230
      Gh(H)           3.567136740000    -2.391532530000     1.794850470000     1.007825032230
      Gh(C)           2.622925760000     2.940979740000    -0.426270370000    12.000000000000
      Gh(C)           0.000000000000     2.940979740000    -0.426270370000    12.000000000000
      Gh(C)           0.000000000000    -0.980326580000     1.278811120000    12.000000000000
      Gh(C)           2.622925760000    -0.980326580000     1.278811120000    12.000000000000
         N          -36.575751600000   -21.130224980000     7.480806970000    14.003074004430
         N          -31.291130690000   -21.130224980000     7.480806970000    14.003074004430
         H          -31.677767280000   -17.758365870000     6.112226870000     1.007825032230
         H          -36.189115000000   -17.758365870000     6.112226870000     1.007825032230
         H          -36.189115000000   -24.502084090000     8.849387070000     1.007825032230
         H          -31.677767280000   -24.502084090000     8.849387070000     1.007825032230
         C          -32.621978260000   -19.169571820000     6.628266220000    12.000000000000
         C          -35.244904020000   -19.169571820000     6.628266220000    12.000000000000
         C          -35.244904020000   -23.090878140000     8.333347720000    12.000000000000
         C          -32.621978260000   -23.090878140000     8.333347720000    12.000000000000

  Charge       = 0
  Multiplicity = 1
  Basis Set: AUG-CC-PVDZ
    Blend: AUG-CC-PVDZ
  Basis Set: (AUG-CC-PVDZ AUX)
    Blend: AUG-CC-PVDZ-JKFIT

    Orbital Energies [Eh]
    ---------------------

    Doubly Occupied:

       1A    -15.598072     2A    -15.598053     3A    -11.274239
       4A    -11.274194     5A    -11.272975     6A    -11.272969
       7A     -1.313347     8A     -1.224176     9A     -1.076803
      10A     -0.922662    11A     -0.919282    12A     -0.760637
      13A     -0.738402    14A     -0.706214    15A     -0.647687
      16A     -0.580711    17A     -0.574369    18A     -0.497113
      19A     -0.434288    20A     -0.415855    21A     -0.359924

  @DF-RHF Final Energy:  -262.63994485057367

   => Energetics <=

    Nuclear Repulsion Energy =            212.5517310423005597
    One-Electron Energy =                -775.4594095027878211
    Two-Electron Energy =                 300.2677336099135346
    Total Energy =                       -262.6399448505736700

  Dipole Moment: [D]
     X:     0.0000      Y:    -0.0000      Z:     0.0000     Total:     0.0000

    SAPT Results
  --------------------------------------------------------------------------------------------------------
    Electrostatics                 -0.00229576 [mEh]      -0.00144061 [kcal/mol]      -0.00602753 [kJ/mol]
      Elst10,r                     -0.00229576 [mEh]      -0.00144061 [kcal/mol]      -0.00602753 [kJ/mol]

    Exchange                        0.00000000 [mEh]       0.00000000 [kcal/mol]       0.00000000 [kJ/mol]
      Exch10                        0.00000000 [mEh]       0.00000000 [kcal/mol]       0.00000000 [kJ/mol]
      Exch10(S^2)                   0.00000000 [mEh]       0.00000000 [kcal/mol]       0.00000000 [kJ/mol]

    Induction                       0.00000996 [mEh]       0.00000625 [kcal/mol]       0.00002614 [kJ/mol]
      Ind20,r                      -0.00000206 [mEh]      -0.00000129 [kcal/mol]      -0.00000540 [kJ/mol]
      Exch-Ind20,r                  0.00000000 [mEh]       0.00000000 [kcal/mol]       0.00000000 [kJ/mol]
      delta HF,r (2)                0.00001201 [mEh]       0.00000754 [kcal/mol]       0.00003154 [kJ/mol]

    Dispersion                     -0.00034525 [mEh]      -0.00021665 [kcal/mol]      -0.00090647 [kJ/mol]
      Disp20                       -0.00034525 [mEh]      -0.00021665 [kcal/mol]      -0.00090647 [kJ/mol]
      Exch-Disp20                   0.00000000 [mEh]       0.00000000 [kcal/mol]       0.00000000 [kJ/mol]
      Disp20 (SS)                  -0.00017263 [mEh]      -0.00010833 [kcal/mol]      -0.00045323 [kJ/mol]
      Disp20 (OS)                  -0.00017263 [mEh]      -0.00010833 [kcal/mol]      -0.00045323 [kJ/mol]
      Exch-Disp20 (SS)              0.00000000 [mEh]       0.00000000 [kcal/mol]       0.00000000 [kJ/mol]
      Exch-Disp20 (OS)              0.00000000 [mEh]       0.00000000 [kcal/mol]       0.00000000 [kJ/mol]

  Total HF                         -0.00228581 [mEh]      -0.00143437 [kcal/mol]      -0.00600139 [kJ/mol]
  Total SAPT0                      -0.00263106 [mEh]      -0.00165102 [kcal/mol]      -0.00690785 [kJ/mol]

  Special recipe for scaled SAPT0 (see Manual):
    Electrostatics sSAPT0          -0.00229576 [mEh]      -0.00144061 [kcal/mol]      -0.00602753 [kJ/mol]
    Exchange sSAPT0                 0.00000000 [mEh]       0.00000000 [kcal/mol]       0.00000000 [kJ/mol]
    Induction sSAPT0                0.00000996 [mEh]       0.00000625 [kcal/mol]       0.00002614 [kJ/mol]
    Dispersion sSAPT0              -0.00034525 [mEh]      -0.00021665 [kcal/mol]      -0.00090647 [kJ/mol]
  Total sSAPT0                     -0.00263106 [mEh]      -0.00165102 [kcal/mol]      -0.00690785 [kJ/mol]
  --------------------------------------------------------------------------------------------------------

*** Psi4 exiting successfully. Buy a developer a beer!
