                               Psi4 1.4.1 release

  ==> Input File <==

--------------------------------------------------------------------------
# PSI4 file produced by CrystaLattE

# Generated from:               pyrazine.xyz
# Psithon input for N-mer:      2mer-0+317
# Number of atoms per monomer:  [10, 10]
# Number of replicas:           2
# COM priority:                 1.979894918649e-05
# Minimum COM separations:      19.561
# Separation priority:          2.828693283041e-05
# Minimum monomer separations:  17.368
# Cutoff priority:              8.618820029459e-07
# Nuclear repulsion energy:     472.72635422032704

memory 7 GB

molecule Dimer_0_317 {
  N           -1.33084758       0.98032658       0.42627037
  N            3.95377333       0.98032658       0.42627037
  H            3.56713674       4.35218569      -0.94230973
  H           -0.94421098       4.35218569      -0.94230973
  H           -0.94421098      -2.39153253       1.79485047
  H            3.56713674      -2.39153253       1.79485047
  C            2.62292576       2.94097974      -0.42627037
  C            0.00000000       2.94097974      -0.42627037
  C            0.00000000      -0.98032658       1.27881112
  C            2.62292576      -0.98032658       1.27881112
--
  N           -1.33084758      12.03560236     -34.84641262
  N            3.95377333      12.03560236     -34.84641262
  H            3.56713674      15.40746147     -36.21499272
  H           -0.94421098      15.40746147     -36.21499272
  H           -0.94421098       8.66374325     -33.47783252
  H            3.56713674       8.66374325     -33.47783252
  C            2.62292576      13.99625552     -35.69895337
  C            0.00000000      13.99625552     -35.69895337
  C            0.00000000      10.07494920     -33.99387187
  C            2.62292576      10.07494920     -33.99387187
units = au
no_com
no_reorient
}

set {
  e_convergence 10
  d_convergence 10
  scf_type df
  mp2_type df
  cc_type df
  freeze_core true
}

energy('sapt0/aug-cc-pvdz')

--------------------------------------------------------------------------

  //              Dimer HF             //
    Molecular point group: c1
  Charge       = 0
  Multiplicity = 1
  Basis Set: AUG-CC-PVDZ
    Blend: AUG-CC-PVDZ
  Basis Set: (AUG-CC-PVDZ AUX)
    Blend: AUG-CC-PVDZ-JKFIT
  @DF-RHF Final Energy:  -525.27989073664878
    Total Energy =                       -525.2798907366487811
  //            Monomer A HF           //
    Molecular point group: c1
  Multiplicity = 1
  Basis Set: AUG-CC-PVDZ
    Blend: AUG-CC-PVDZ
  Basis Set: (AUG-CC-PVDZ AUX)
    Blend: AUG-CC-PVDZ-JKFIT
  @DF-RHF Final Energy:  -262.63994485171855
    Total Energy =                       -262.6399448517185533
  //            Monomer B HF           //
    Molecular point group: c1

    Geometry (in Bohr), charge = 0, multiplicity = 1:

       Center              X                  Y                   Z               Mass
    ------------   -----------------  -----------------  -----------------  -----------------
      Gh(N)          -1.330847580000     0.980326580000     0.426270370000    14.003074004430
      Gh(N)           3.953773330000     0.980326580000     0.426270370000    14.003074004430
      Gh(H)           3.567136740000     4.352185690000    -0.942309730000     1.007825032230
      Gh(H)          -0.944210980000     4.352185690000    -0.942309730000     1.007825032230
      Gh(H)          -0.944210980000    -2.391532530000     1.794850470000     1.007825032230
      Gh(H)           3.567136740000    -2.391532530000     1.794850470000     1.007825032230
      Gh(C)           2.622925760000     2.940979740000    -0.426270370000    12.000000000000
      Gh(C)           0.000000000000     2.940979740000    -0.426270370000    12.000000000000
      Gh(C)           0.000000000000    -0.980326580000     1.278811120000    12.000000000000
      Gh(C)           2.622925760000    -0.980326580000     1.278811120000    12.000000000000
         N           -1.330847580000    12.035602360000   -34.846412620000    14.003074004430
         N            3.953773330000    12.035602360000   -34.846412620000    14.003074004430
         H            3.567136740000    15.407461470000   -36.214992720000     1.007825032230
         H           -0.944210980000    15.407461470000   -36.214992720000     1.007825032230
         H           -0.944210980000     8.663743250000   -33.477832520000     1.007825032230
         H            3.567136740000     8.663743250000   -33.477832520000     1.007825032230
         C            2.622925760000    13.996255520000   -35.698953370000    12.000000000000
         C            0.000000000000    13.996255520000   -35.698953370000    12.000000000000
         C            0.000000000000    10.074949200000   -33.993871870000    12.000000000000
         C            2.622925760000    10.074949200000   -33.993871870000    12.000000000000

  Charge       = 0
  Multiplicity = 1
  Basis Set: AUG-CC-PVDZ
    Blend: AUG-CC-PVDZ
  Basis Set: (AUG-CC-PVDZ AUX)
    Blend: AUG-CC-PVDZ-JKFIT

    Orbital Energies [Eh]
    ---------------------

    Doubly Occupied:

       1A    -15.598072     2A    -15.598053     3A    -11.274239
       4A    -11.274194     5A    -11.272975     6A    -11.272969
       7A     -1.313347     8A     -1.224176     9A     -1.076803
      10A     -0.922662    11A     -0.919282    12A     -0.760637
      13A     -0.738402    14A     -0.706214    15A     -0.647687
      16A     -0.580711    17A     -0.574369    18A     -0.497113
      19A     -0.434288    20A     -0.415855    21A     -0.359924

  @DF-RHF Final Energy:  -262.63994484931806

   => Energetics <=

    Nuclear Repulsion Energy =            212.5517310423005881
    One-Electron Energy =                -775.4594094944292237
    Two-Electron Energy =                 300.2677336028105515
    Total Energy =                       -262.6399448493180557

  Dipole Moment: [D]
     X:     0.0000      Y:     0.0000      Z:    -0.0000     Total:     0.0000

    SAPT Results
  --------------------------------------------------------------------------------------------------------
    Electrostatics                 -0.00103679 [mEh]      -0.00065060 [kcal/mol]      -0.00272209 [kJ/mol]
      Elst10,r                     -0.00103679 [mEh]      -0.00065060 [kcal/mol]      -0.00272209 [kJ/mol]

    Exchange                       -0.00000000 [mEh]      -0.00000000 [kcal/mol]      -0.00000000 [kJ/mol]
      Exch10                       -0.00000000 [mEh]      -0.00000000 [kcal/mol]      -0.00000000 [kJ/mol]
      Exch10(S^2)                  -0.00000000 [mEh]      -0.00000000 [kcal/mol]      -0.00000000 [kJ/mol]

    Induction                       0.00000118 [mEh]       0.00000074 [kcal/mol]       0.00000309 [kJ/mol]
      Ind20,r                      -0.00000186 [mEh]      -0.00000117 [kcal/mol]      -0.00000488 [kJ/mol]
      Exch-Ind20,r                  0.00000000 [mEh]       0.00000000 [kcal/mol]       0.00000000 [kJ/mol]
      delta HF,r (2)                0.00000304 [mEh]       0.00000190 [kcal/mol]       0.00000797 [kJ/mol]

    Dispersion                     -0.00061052 [mEh]      -0.00038311 [kcal/mol]      -0.00160291 [kJ/mol]
      Disp20                       -0.00061052 [mEh]      -0.00038311 [kcal/mol]      -0.00160291 [kJ/mol]
      Exch-Disp20                   0.00000000 [mEh]       0.00000000 [kcal/mol]       0.00000000 [kJ/mol]
      Disp20 (SS)                  -0.00030526 [mEh]      -0.00019155 [kcal/mol]      -0.00080146 [kJ/mol]
      Disp20 (OS)                  -0.00030526 [mEh]      -0.00019155 [kcal/mol]      -0.00080146 [kJ/mol]
      Exch-Disp20 (SS)              0.00000000 [mEh]       0.00000000 [kcal/mol]       0.00000000 [kJ/mol]
      Exch-Disp20 (OS)              0.00000000 [mEh]       0.00000000 [kcal/mol]       0.00000000 [kJ/mol]

  Total HF                         -0.00103561 [mEh]      -0.00064986 [kcal/mol]      -0.00271900 [kJ/mol]
  Total SAPT0                      -0.00164613 [mEh]      -0.00103296 [kcal/mol]      -0.00432191 [kJ/mol]

  Special recipe for scaled SAPT0 (see Manual):
    Electrostatics sSAPT0          -0.00103679 [mEh]      -0.00065060 [kcal/mol]      -0.00272209 [kJ/mol]
    Exchange sSAPT0                -0.00000000 [mEh]      -0.00000000 [kcal/mol]      -0.00000000 [kJ/mol]
    Induction sSAPT0                0.00000118 [mEh]       0.00000074 [kcal/mol]       0.00000309 [kJ/mol]
    Dispersion sSAPT0              -0.00061052 [mEh]      -0.00038311 [kcal/mol]      -0.00160291 [kJ/mol]
  Total sSAPT0                     -0.00164613 [mEh]      -0.00103296 [kcal/mol]      -0.00432191 [kJ/mol]
  --------------------------------------------------------------------------------------------------------

*** Psi4 exiting successfully. Buy a developer a beer!
