                               Psi4 1.4.1 release

  ==> Input File <==

--------------------------------------------------------------------------
# PSI4 file produced by CrystaLattE

# Generated from:               pyrazine.xyz
# Psithon input for N-mer:      2mer-0+79
# Number of atoms per monomer:  [10, 10]
# Number of replicas:           4
# COM priority:                 6.296418252424e-05
# Minimum COM separations:      13.302
# Separation priority:          1.748477005105e-04
# Minimum monomer separations:  9.463
# Cutoff priority:              9.777171507377e-06
# Nuclear repulsion energy:     495.555434485065

memory 7 GB

molecule Dimer_0_79 {
  N           -1.33084758       0.98032658       0.42627037
  N            3.95377333       0.98032658       0.42627037
  H            3.56713674       4.35218569      -0.94230973
  H           -0.94421098       4.35218569      -0.94230973
  H           -0.94421098      -2.39153253       1.79485047
  H            3.56713674      -2.39153253       1.79485047
  C            2.62292576       2.94097974      -0.42627037
  C            0.00000000       2.94097974      -0.42627037
  C            0.00000000      -0.98032658       1.27881112
  C            2.62292576      -0.98032658       1.27881112
--
  N          -18.95329959     -10.07494920      14.53534357
  N          -13.66867868     -10.07494920      14.53534357
  H          -14.05531527      -6.70309009      13.16676347
  H          -18.56666299      -6.70309009      13.16676347
  H          -18.56666299     -13.44680831      15.90392367
  H          -14.05531527     -13.44680831      15.90392367
  C          -14.99952625      -8.11429604      13.68280282
  C          -17.62245201      -8.11429604      13.68280282
  C          -17.62245201     -12.03560236      15.38788432
  C          -14.99952625     -12.03560236      15.38788432
units = au
no_com
no_reorient
}

set {
  e_convergence 10
  d_convergence 10
  scf_type df
  mp2_type df
  cc_type df
  freeze_core true
}

energy('sapt0/aug-cc-pvdz')

--------------------------------------------------------------------------

  //              Dimer HF             //
    Molecular point group: c1
  Charge       = 0
  Multiplicity = 1
  Basis Set: AUG-CC-PVDZ
    Blend: AUG-CC-PVDZ
  Basis Set: (AUG-CC-PVDZ AUX)
    Blend: AUG-CC-PVDZ-JKFIT
  @DF-RHF Final Energy:  -525.27992571341258
    Total Energy =                       -525.2799257134125810
  //            Monomer A HF           //
    Molecular point group: c1
  Multiplicity = 1
  Basis Set: AUG-CC-PVDZ
    Blend: AUG-CC-PVDZ
  Basis Set: (AUG-CC-PVDZ AUX)
    Blend: AUG-CC-PVDZ-JKFIT
  @DF-RHF Final Energy:  -262.63994655541518
    Total Energy =                       -262.6399465554151789
  //            Monomer B HF           //
    Molecular point group: c1

    Geometry (in Bohr), charge = 0, multiplicity = 1:

       Center              X                  Y                   Z               Mass
    ------------   -----------------  -----------------  -----------------  -----------------
      Gh(N)          -1.330847580000     0.980326580000     0.426270370000    14.003074004430
      Gh(N)           3.953773330000     0.980326580000     0.426270370000    14.003074004430
      Gh(H)           3.567136740000     4.352185690000    -0.942309730000     1.007825032230
      Gh(H)          -0.944210980000     4.352185690000    -0.942309730000     1.007825032230
      Gh(H)          -0.944210980000    -2.391532530000     1.794850470000     1.007825032230
      Gh(H)           3.567136740000    -2.391532530000     1.794850470000     1.007825032230
      Gh(C)           2.622925760000     2.940979740000    -0.426270370000    12.000000000000
      Gh(C)           0.000000000000     2.940979740000    -0.426270370000    12.000000000000
      Gh(C)           0.000000000000    -0.980326580000     1.278811120000    12.000000000000
      Gh(C)           2.622925760000    -0.980326580000     1.278811120000    12.000000000000
         N          -18.953299590000   -10.074949200000    14.535343570000    14.003074004430
         N          -13.668678680000   -10.074949200000    14.535343570000    14.003074004430
         H          -14.055315270000    -6.703090090000    13.166763470000     1.007825032230
         H          -18.566662990000    -6.703090090000    13.166763470000     1.007825032230
         H          -18.566662990000   -13.446808310000    15.903923670000     1.007825032230
         H          -14.055315270000   -13.446808310000    15.903923670000     1.007825032230
         C          -14.999526250000    -8.114296040000    13.682802820000    12.000000000000
         C          -17.622452010000    -8.114296040000    13.682802820000    12.000000000000
         C          -17.622452010000   -12.035602360000    15.387884320000    12.000000000000
         C          -14.999526250000   -12.035602360000    15.387884320000    12.000000000000

  Charge       = 0
  Multiplicity = 1
  Basis Set: AUG-CC-PVDZ
    Blend: AUG-CC-PVDZ
  Basis Set: (AUG-CC-PVDZ AUX)
    Blend: AUG-CC-PVDZ-JKFIT

    Orbital Energies [Eh]
    ---------------------

    Doubly Occupied:

       1A    -15.598072     2A    -15.598053     3A    -11.274238
       4A    -11.274193     5A    -11.272974     6A    -11.272969
       7A     -1.313347     8A     -1.224175     9A     -1.076803
      10A     -0.922662    11A     -0.919282    12A     -0.760637
      13A     -0.738402    14A     -0.706214    15A     -0.647688
      16A     -0.580711    17A     -0.574369    18A     -0.497113
      19A     -0.434288    20A     -0.415855    21A     -0.359924

  @DF-RHF Final Energy:  -262.63994655597480

   => Energetics <=

    Nuclear Repulsion Energy =            212.5517310423005028
    One-Electron Energy =                -775.4594196382496420
    Two-Electron Energy =                 300.2677420399743369
    Total Energy =                       -262.6399465559748023

  Dipole Moment: [D]
     X:    -0.0000      Y:     0.0000      Z:    -0.0000     Total:     0.0000

    SAPT Results
  --------------------------------------------------------------------------------------------------------
    Electrostatics                 -0.03247210 [mEh]      -0.02037655 [kcal/mol]      -0.08525548 [kJ/mol]
      Elst10,r                     -0.03247210 [mEh]      -0.02037655 [kcal/mol]      -0.08525548 [kJ/mol]

    Exchange                        0.00000198 [mEh]       0.00000124 [kcal/mol]       0.00000519 [kJ/mol]
      Exch10                        0.00000198 [mEh]       0.00000124 [kcal/mol]       0.00000519 [kJ/mol]
      Exch10(S^2)                   0.00000198 [mEh]       0.00000124 [kcal/mol]       0.00000519 [kJ/mol]

    Induction                      -0.00013190 [mEh]      -0.00008277 [kcal/mol]      -0.00034631 [kJ/mol]
      Ind20,r                      -0.00012166 [mEh]      -0.00007634 [kcal/mol]      -0.00031942 [kJ/mol]
      Exch-Ind20,r                  0.00000342 [mEh]       0.00000215 [kcal/mol]       0.00000899 [kJ/mol]
      delta HF,r (2)               -0.00001366 [mEh]      -0.00000857 [kcal/mol]      -0.00003588 [kJ/mol]

    Dispersion                     -0.00834768 [mEh]      -0.00523825 [kcal/mol]      -0.02191682 [kJ/mol]
      Disp20                       -0.00834785 [mEh]      -0.00523836 [kcal/mol]      -0.02191728 [kJ/mol]
      Exch-Disp20                   0.00000018 [mEh]       0.00000011 [kcal/mol]       0.00000046 [kJ/mol]
      Disp20 (SS)                  -0.00417393 [mEh]      -0.00261918 [kcal/mol]      -0.01095864 [kJ/mol]
      Disp20 (OS)                  -0.00417393 [mEh]      -0.00261918 [kcal/mol]      -0.01095864 [kJ/mol]
      Exch-Disp20 (SS)              0.00000014 [mEh]       0.00000009 [kcal/mol]       0.00000037 [kJ/mol]
      Exch-Disp20 (OS)              0.00000004 [mEh]       0.00000002 [kcal/mol]       0.00000009 [kJ/mol]

  Total HF                         -0.03260202 [mEh]      -0.02045808 [kcal/mol]      -0.08559660 [kJ/mol]
  Total SAPT0                      -0.04094970 [mEh]      -0.02569632 [kcal/mol]      -0.10751342 [kJ/mol]

  Special recipe for scaled SAPT0 (see Manual):
    Electrostatics sSAPT0          -0.03247210 [mEh]      -0.02037655 [kcal/mol]      -0.08525548 [kJ/mol]
    Exchange sSAPT0                 0.00000198 [mEh]       0.00000124 [kcal/mol]       0.00000519 [kJ/mol]
    Induction sSAPT0               -0.00013190 [mEh]      -0.00008277 [kcal/mol]      -0.00034631 [kJ/mol]
    Dispersion sSAPT0              -0.00834768 [mEh]      -0.00523825 [kcal/mol]      -0.02191682 [kJ/mol]
  Total sSAPT0                     -0.04094970 [mEh]      -0.02569632 [kcal/mol]      -0.10751342 [kJ/mol]
  --------------------------------------------------------------------------------------------------------

*** Psi4 exiting successfully. Buy a developer a beer!
