                               Psi4 1.4.1 release

  ==> Input File <==

--------------------------------------------------------------------------
# PSI4 file produced by CrystaLattE

# Generated from:               pyrazine.xyz
# Psithon input for N-mer:      2mer-0+222
# Number of atoms per monomer:  [10, 10]
# Number of replicas:           4
# COM priority:                 2.270022709729e-05
# Minimum COM separations:      18.689
# Separation priority:          4.892356946787e-05
# Minimum monomer separations:  14.469
# Cutoff priority:              1.789331665259e-06
# Nuclear repulsion energy:     475.16311816494635

memory 7 GB

molecule Dimer_0_222 {
  N           -1.33084758       0.98032658       0.42627037
  N            3.95377333       0.98032658       0.42627037
  H            3.56713674       4.35218569      -0.94230973
  H           -0.94421098       4.35218569      -0.94230973
  H           -0.94421098      -2.39153253       1.79485047
  H            3.56713674      -2.39153253       1.79485047
  C            2.62292576       2.94097974      -0.42627037
  C            0.00000000       2.94097974      -0.42627037
  C            0.00000000      -0.98032658       1.27881112
  C            2.62292576      -0.98032658       1.27881112
--
  N          -18.95329959     -21.13022498      21.58988017
  N          -13.66867868     -21.13022498      21.58988017
  H          -14.05531527     -17.75836587      20.22130007
  H          -18.56666299     -17.75836587      20.22130007
  H          -18.56666299     -24.50208409      22.95846027
  H          -14.05531527     -24.50208409      22.95846027
  C          -14.99952625     -19.16957182      20.73733942
  C          -17.62245201     -19.16957182      20.73733942
  C          -17.62245201     -23.09087814      22.44242092
  C          -14.99952625     -23.09087814      22.44242092
units = au
no_com
no_reorient
}

set {
  e_convergence 10
  d_convergence 10
  scf_type df
  mp2_type df
  cc_type df
  freeze_core true
}

energy('sapt0/aug-cc-pvdz')

--------------------------------------------------------------------------

  //              Dimer HF             //
    Molecular point group: c1
  Charge       = 0
  Multiplicity = 1
  Basis Set: AUG-CC-PVDZ
    Blend: AUG-CC-PVDZ
  Basis Set: (AUG-CC-PVDZ AUX)
    Blend: AUG-CC-PVDZ-JKFIT
  @DF-RHF Final Energy:  -525.27989286364050
    Total Energy =                       -525.2798928636404980
  //            Monomer A HF           //
    Molecular point group: c1
  Multiplicity = 1
  Basis Set: AUG-CC-PVDZ
    Blend: AUG-CC-PVDZ
  Basis Set: (AUG-CC-PVDZ AUX)
    Blend: AUG-CC-PVDZ-JKFIT
  @DF-RHF Final Energy:  -262.63994484847973
    Total Energy =                       -262.6399448484797290
  //            Monomer B HF           //
    Molecular point group: c1

    Geometry (in Bohr), charge = 0, multiplicity = 1:

       Center              X                  Y                   Z               Mass
    ------------   -----------------  -----------------  -----------------  -----------------
      Gh(N)          -1.330847580000     0.980326580000     0.426270370000    14.003074004430
      Gh(N)           3.953773330000     0.980326580000     0.426270370000    14.003074004430
      Gh(H)           3.567136740000     4.352185690000    -0.942309730000     1.007825032230
      Gh(H)          -0.944210980000     4.352185690000    -0.942309730000     1.007825032230
      Gh(H)          -0.944210980000    -2.391532530000     1.794850470000     1.007825032230
      Gh(H)           3.567136740000    -2.391532530000     1.794850470000     1.007825032230
      Gh(C)           2.622925760000     2.940979740000    -0.426270370000    12.000000000000
      Gh(C)           0.000000000000     2.940979740000    -0.426270370000    12.000000000000
      Gh(C)           0.000000000000    -0.980326580000     1.278811120000    12.000000000000
      Gh(C)           2.622925760000    -0.980326580000     1.278811120000    12.000000000000
         N          -18.953299590000   -21.130224980000    21.589880170000    14.003074004430
         N          -13.668678680000   -21.130224980000    21.589880170000    14.003074004430
         H          -14.055315270000   -17.758365870000    20.221300070000     1.007825032230
         H          -18.566662990000   -17.758365870000    20.221300070000     1.007825032230
         H          -18.566662990000   -24.502084090000    22.958460270000     1.007825032230
         H          -14.055315270000   -24.502084090000    22.958460270000     1.007825032230
         C          -14.999526250000   -19.169571820000    20.737339420000    12.000000000000
         C          -17.622452010000   -19.169571820000    20.737339420000    12.000000000000
         C          -17.622452010000   -23.090878140000    22.442420920000    12.000000000000
         C          -14.999526250000   -23.090878140000    22.442420920000    12.000000000000

  Charge       = 0
  Multiplicity = 1
  Basis Set: AUG-CC-PVDZ
    Blend: AUG-CC-PVDZ
  Basis Set: (AUG-CC-PVDZ AUX)
    Blend: AUG-CC-PVDZ-JKFIT

    Orbital Energies [Eh]
    ---------------------

    Doubly Occupied:

       1A    -15.598072     2A    -15.598053     3A    -11.274239
       4A    -11.274194     5A    -11.272975     6A    -11.272969
       7A     -1.313347     8A     -1.224176     9A     -1.076803
      10A     -0.922662    11A     -0.919282    12A     -0.760637
      13A     -0.738402    14A     -0.706214    15A     -0.647687
      16A     -0.580711    17A     -0.574369    18A     -0.497113
      19A     -0.434288    20A     -0.415855    21A     -0.359924

  @DF-RHF Final Energy:  -262.63994484705978

   => Energetics <=

    Nuclear Repulsion Energy =            212.5517310423005313
    One-Electron Energy =                -775.4594094798055721
    Two-Electron Energy =                 300.2677335904452889
    Total Energy =                       -262.6399448470597804

  Dipole Moment: [D]
     X:     0.0000      Y:    -0.0000      Z:     0.0000     Total:     0.0000

    SAPT Results
  --------------------------------------------------------------------------------------------------------
    Electrostatics                 -0.00315379 [mEh]      -0.00197904 [kcal/mol]      -0.00828028 [kJ/mol]
      Elst10,r                     -0.00315379 [mEh]      -0.00197904 [kcal/mol]      -0.00828028 [kJ/mol]

    Exchange                        0.00000000 [mEh]       0.00000000 [kcal/mol]       0.00000000 [kJ/mol]
      Exch10                        0.00000000 [mEh]       0.00000000 [kcal/mol]       0.00000000 [kJ/mol]
      Exch10(S^2)                   0.00000000 [mEh]       0.00000000 [kcal/mol]       0.00000000 [kJ/mol]

    Induction                      -0.00001431 [mEh]      -0.00000898 [kcal/mol]      -0.00003756 [kJ/mol]
      Ind20,r                      -0.00000902 [mEh]      -0.00000566 [kcal/mol]      -0.00002369 [kJ/mol]
      Exch-Ind20,r                  0.00000000 [mEh]       0.00000000 [kcal/mol]       0.00000000 [kJ/mol]
      delta HF,r (2)               -0.00000529 [mEh]      -0.00000332 [kcal/mol]      -0.00001388 [kJ/mol]

    Dispersion                     -0.00102509 [mEh]      -0.00064325 [kcal/mol]      -0.00269136 [kJ/mol]
      Disp20                       -0.00102509 [mEh]      -0.00064325 [kcal/mol]      -0.00269136 [kJ/mol]
      Exch-Disp20                   0.00000000 [mEh]       0.00000000 [kcal/mol]       0.00000000 [kJ/mol]
      Disp20 (SS)                  -0.00051254 [mEh]      -0.00032163 [kcal/mol]      -0.00134568 [kJ/mol]
      Disp20 (OS)                  -0.00051254 [mEh]      -0.00032163 [kcal/mol]      -0.00134568 [kJ/mol]
      Exch-Disp20 (SS)              0.00000000 [mEh]       0.00000000 [kcal/mol]       0.00000000 [kJ/mol]
      Exch-Disp20 (OS)              0.00000000 [mEh]       0.00000000 [kcal/mol]       0.00000000 [kJ/mol]

  Total HF                         -0.00316810 [mEh]      -0.00198801 [kcal/mol]      -0.00831785 [kJ/mol]
  Total SAPT0                      -0.00419319 [mEh]      -0.00263126 [kcal/mol]      -0.01100921 [kJ/mol]

  Special recipe for scaled SAPT0 (see Manual):
    Electrostatics sSAPT0          -0.00315379 [mEh]      -0.00197904 [kcal/mol]      -0.00828028 [kJ/mol]
    Exchange sSAPT0                 0.00000000 [mEh]       0.00000000 [kcal/mol]       0.00000000 [kJ/mol]
    Induction sSAPT0               -0.00001431 [mEh]      -0.00000898 [kcal/mol]      -0.00003756 [kJ/mol]
    Dispersion sSAPT0              -0.00102509 [mEh]      -0.00064325 [kcal/mol]      -0.00269136 [kJ/mol]
  Total sSAPT0                     -0.00419319 [mEh]      -0.00263126 [kcal/mol]      -0.01100921 [kJ/mol]
  --------------------------------------------------------------------------------------------------------

*** Psi4 exiting successfully. Buy a developer a beer!
