                               Psi4 1.4.1 release

  ==> Input File <==

--------------------------------------------------------------------------
# PSI4 file produced by CrystaLattE

# Generated from:               pyrazine.xyz
# Psithon input for N-mer:      2mer-0+11
# Number of atoms per monomer:  [10, 10]
# Number of replicas:           2
# COM priority:                 4.433654392739e-04
# Minimum COM separations:      6.940
# Separation priority:          4.402235410040e-03
# Minimum monomer separations:  3.229
# Cutoff priority:              7.214911645445e-04
# Nuclear repulsion energy:     562.5669279378653

memory 7 GB

molecule Dimer_0_11 {
  N           -1.33084758       0.98032658       0.42627037
  N            3.95377333       0.98032658       0.42627037
  H            3.56713674       4.35218569      -0.94230973
  H           -0.94421098       4.35218569      -0.94230973
  H           -0.94421098      -2.39153253       1.79485047
  H            3.56713674      -2.39153253       1.79485047
  C            2.62292576       2.94097974      -0.42627037
  C            0.00000000       2.94097974      -0.42627037
  C            0.00000000      -0.98032658       1.27881112
  C            2.62292576      -0.98032658       1.27881112
--
  N           -1.33084758     -10.07494920       7.48080697
  N            3.95377333     -10.07494920       7.48080697
  H            3.56713674      -6.70309009       6.11222687
  H           -0.94421098      -6.70309009       6.11222687
  H           -0.94421098     -13.44680831       8.84938707
  H            3.56713674     -13.44680831       8.84938707
  C            2.62292576      -8.11429604       6.62826622
  C            0.00000000      -8.11429604       6.62826622
  C            0.00000000     -12.03560236       8.33334772
  C            2.62292576     -12.03560236       8.33334772
units = au
no_com
no_reorient
}

set {
  e_convergence 10
  d_convergence 10
  scf_type df
  mp2_type df
  cc_type df
  freeze_core true
}

energy('sapt0/aug-cc-pvdz')

--------------------------------------------------------------------------

  //              Dimer HF             //
    Molecular point group: c1
  Charge       = 0
  Multiplicity = 1
  Basis Set: AUG-CC-PVDZ
    Blend: AUG-CC-PVDZ
  Basis Set: (AUG-CC-PVDZ AUX)
    Blend: AUG-CC-PVDZ-JKFIT
  @DF-RHF Final Energy:  -525.27933312990683
    Total Energy =                       -525.2793331299068313
  //            Monomer A HF           //
    Molecular point group: c1
  Multiplicity = 1
  Basis Set: AUG-CC-PVDZ
    Blend: AUG-CC-PVDZ
  Basis Set: (AUG-CC-PVDZ AUX)
    Blend: AUG-CC-PVDZ-JKFIT
  @DF-RHF Final Energy:  -262.64009585477845
    Total Energy =                       -262.6400958547784512
  //            Monomer B HF           //
    Molecular point group: c1

    Geometry (in Bohr), charge = 0, multiplicity = 1:

       Center              X                  Y                   Z               Mass
    ------------   -----------------  -----------------  -----------------  -----------------
      Gh(N)          -1.330847580000     0.980326580000     0.426270370000    14.003074004430
      Gh(N)           3.953773330000     0.980326580000     0.426270370000    14.003074004430
      Gh(H)           3.567136740000     4.352185690000    -0.942309730000     1.007825032230
      Gh(H)          -0.944210980000     4.352185690000    -0.942309730000     1.007825032230
      Gh(H)          -0.944210980000    -2.391532530000     1.794850470000     1.007825032230
      Gh(H)           3.567136740000    -2.391532530000     1.794850470000     1.007825032230
      Gh(C)           2.622925760000     2.940979740000    -0.426270370000    12.000000000000
      Gh(C)           0.000000000000     2.940979740000    -0.426270370000    12.000000000000
      Gh(C)           0.000000000000    -0.980326580000     1.278811120000    12.000000000000
      Gh(C)           2.622925760000    -0.980326580000     1.278811120000    12.000000000000
         N           -1.330847580000   -10.074949200000     7.480806970000    14.003074004430
         N            3.953773330000   -10.074949200000     7.480806970000    14.003074004430
         H            3.567136740000    -6.703090090000     6.112226870000     1.007825032230
         H           -0.944210980000    -6.703090090000     6.112226870000     1.007825032230
         H           -0.944210980000   -13.446808310000     8.849387070000     1.007825032230
         H            3.567136740000   -13.446808310000     8.849387070000     1.007825032230
         C            2.622925760000    -8.114296040000     6.628266220000    12.000000000000
         C            0.000000000000    -8.114296040000     6.628266220000    12.000000000000
         C            0.000000000000   -12.035602360000     8.333347720000    12.000000000000
         C            2.622925760000   -12.035602360000     8.333347720000    12.000000000000

  Charge       = 0
  Multiplicity = 1
  Basis Set: AUG-CC-PVDZ
    Blend: AUG-CC-PVDZ
  Basis Set: (AUG-CC-PVDZ AUX)
    Blend: AUG-CC-PVDZ-JKFIT

    Orbital Energies [Eh]
    ---------------------

    Doubly Occupied:

       1A    -15.598077     2A    -15.598059     3A    -11.274220
       4A    -11.274107     5A    -11.272971     6A    -11.272866
       7A     -1.313341     8A     -1.224171     9A     -1.076795
      10A     -0.922657    11A     -0.919277    12A     -0.760636
      13A     -0.738411    14A     -0.706211    15A     -0.647685
      16A     -0.580709    17A     -0.574371    18A     -0.497111
      19A     -0.434290    20A     -0.415853    21A     -0.359922

  @DF-RHF Final Energy:  -262.64009585606630

   => Energetics <=

    Nuclear Repulsion Energy =            212.5517310423005313
    One-Electron Energy =                -775.4601715340526198
    Two-Electron Energy =                 300.2683446356858212
    Total Energy =                       -262.6400958560662957

  Dipole Moment: [D]
     X:     0.0000      Y:    -0.0007      Z:     0.0001     Total:     0.0007

    SAPT Results
  --------------------------------------------------------------------------------------------------------
    Electrostatics                  0.85356764 [mEh]       0.53562178 [kcal/mol]       2.24104154 [kJ/mol]
      Elst10,r                      0.85356764 [mEh]       0.53562178 [kcal/mol]       2.24104154 [kJ/mol]

    Exchange                        0.07778500 [mEh]       0.04881082 [kcal/mol]       0.20422448 [kJ/mol]
      Exch10                        0.07778500 [mEh]       0.04881082 [kcal/mol]       0.20422448 [kJ/mol]
      Exch10(S^2)                   0.07778237 [mEh]       0.04880918 [kcal/mol]       0.20421759 [kJ/mol]

    Induction                      -0.07277170 [mEh]      -0.04566493 [kcal/mol]      -0.19106208 [kJ/mol]
      Ind20,r                      -0.08770000 [mEh]      -0.05503258 [kcal/mol]      -0.23025631 [kJ/mol]
      Exch-Ind20,r                  0.01355405 [mEh]       0.00850530 [kcal/mol]       0.03558616 [kJ/mol]
      delta HF,r (2)                0.00137424 [mEh]       0.00086235 [kcal/mol]       0.00360806 [kJ/mol]

    Dispersion                     -0.91243280 [mEh]      -0.57256023 [kcal/mol]      -2.39559200 [kJ/mol]
      Disp20                       -0.92226032 [mEh]      -0.57872709 [kcal/mol]      -2.42139415 [kJ/mol]
      Exch-Disp20                   0.00982752 [mEh]       0.00616686 [kcal/mol]       0.02580215 [kJ/mol]
      Disp20 (SS)                  -0.46113016 [mEh]      -0.28936355 [kcal/mol]      -1.21069707 [kJ/mol]
      Disp20 (OS)                  -0.46113016 [mEh]      -0.28936355 [kcal/mol]      -1.21069707 [kJ/mol]
      Exch-Disp20 (SS)              0.00683694 [mEh]       0.00429024 [kcal/mol]       0.01795038 [kJ/mol]
      Exch-Disp20 (OS)              0.00299058 [mEh]       0.00187662 [kcal/mol]       0.00785177 [kJ/mol]

  Total HF                          0.85858094 [mEh]       0.53876767 [kcal/mol]       2.25420394 [kJ/mol]
  Total SAPT0                      -0.05385187 [mEh]      -0.03379256 [kcal/mol]      -0.14138806 [kJ/mol]

  Special recipe for scaled SAPT0 (see Manual):
    Electrostatics sSAPT0           0.85356764 [mEh]       0.53562178 [kcal/mol]       2.24104154 [kJ/mol]
    Exchange sSAPT0                 0.07778500 [mEh]       0.04881082 [kcal/mol]       0.20422448 [kJ/mol]
    Induction sSAPT0               -0.07277033 [mEh]      -0.04566407 [kcal/mol]      -0.19105848 [kJ/mol]
    Dispersion sSAPT0              -0.91243181 [mEh]      -0.57255960 [kcal/mol]      -2.39558939 [kJ/mol]
  Total sSAPT0                     -0.05384950 [mEh]      -0.03379107 [kcal/mol]      -0.14138184 [kJ/mol]
  --------------------------------------------------------------------------------------------------------

*** Psi4 exiting successfully. Buy a developer a beer!
