                               Psi4 1.4.1 release

  ==> Input File <==

--------------------------------------------------------------------------
# PSI4 file produced by CrystaLattE

# Generated from:               pyrazine.xyz
# Psithon input for N-mer:      2mer-0+170
# Number of atoms per monomer:  [10, 10]
# Number of replicas:           4
# COM priority:                 3.169438280376e-05
# Minimum COM separations:      16.721
# Separation priority:          5.495346408291e-05
# Minimum monomer separations:  13.919
# Cutoff priority:              2.089264534496e-06
# Nuclear repulsion energy:     480.837354387349

memory 7 GB

molecule Dimer_0_170 {
  N           -1.33084758       0.98032658       0.42627037
  N            3.95377333       0.98032658       0.42627037
  H            3.56713674       4.35218569      -0.94230973
  H           -0.94421098       4.35218569      -0.94230973
  H           -0.94421098      -2.39153253       1.79485047
  H            3.56713674      -2.39153253       1.79485047
  C            2.62292576       2.94097974      -0.42627037
  C            0.00000000       2.94097974      -0.42627037
  C            0.00000000      -0.98032658       1.27881112
  C            2.62292576      -0.98032658       1.27881112
--
  N          -18.95329959     -21.13022498     -13.68280282
  N          -13.66867868     -21.13022498     -13.68280282
  H          -14.05531527     -17.75836587     -15.05138292
  H          -18.56666299     -17.75836587     -15.05138292
  H          -18.56666299     -24.50208409     -12.31422272
  H          -14.05531527     -24.50208409     -12.31422272
  C          -14.99952625     -19.16957182     -14.53534357
  C          -17.62245201     -19.16957182     -14.53534357
  C          -17.62245201     -23.09087814     -12.83026208
  C          -14.99952625     -23.09087814     -12.83026208
units = au
no_com
no_reorient
}

set {
  e_convergence 10
  d_convergence 10
  scf_type df
  mp2_type df
  cc_type df
  freeze_core true
}

energy('sapt0/aug-cc-pvdz')

--------------------------------------------------------------------------

  //              Dimer HF             //
    Molecular point group: c1
  Charge       = 0
  Multiplicity = 1
  Basis Set: AUG-CC-PVDZ
    Blend: AUG-CC-PVDZ
  Basis Set: (AUG-CC-PVDZ AUX)
    Blend: AUG-CC-PVDZ-JKFIT
  @DF-RHF Final Energy:  -525.27989448370408
    Total Energy =                       -525.2798944837040835
  //            Monomer A HF           //
    Molecular point group: c1
  Multiplicity = 1
  Basis Set: AUG-CC-PVDZ
    Blend: AUG-CC-PVDZ
  Basis Set: (AUG-CC-PVDZ AUX)
    Blend: AUG-CC-PVDZ-JKFIT
  @DF-RHF Final Energy:  -262.63994484837366
    Total Energy =                       -262.6399448483736592
  //            Monomer B HF           //
    Molecular point group: c1

    Geometry (in Bohr), charge = 0, multiplicity = 1:

       Center              X                  Y                   Z               Mass
    ------------   -----------------  -----------------  -----------------  -----------------
      Gh(N)          -1.330847580000     0.980326580000     0.426270370000    14.003074004430
      Gh(N)           3.953773330000     0.980326580000     0.426270370000    14.003074004430
      Gh(H)           3.567136740000     4.352185690000    -0.942309730000     1.007825032230
      Gh(H)          -0.944210980000     4.352185690000    -0.942309730000     1.007825032230
      Gh(H)          -0.944210980000    -2.391532530000     1.794850470000     1.007825032230
      Gh(H)           3.567136740000    -2.391532530000     1.794850470000     1.007825032230
      Gh(C)           2.622925760000     2.940979740000    -0.426270370000    12.000000000000
      Gh(C)           0.000000000000     2.940979740000    -0.426270370000    12.000000000000
      Gh(C)           0.000000000000    -0.980326580000     1.278811120000    12.000000000000
      Gh(C)           2.622925760000    -0.980326580000     1.278811120000    12.000000000000
         N          -18.953299590000   -21.130224980000   -13.682802820000    14.003074004430
         N          -13.668678680000   -21.130224980000   -13.682802820000    14.003074004430
         H          -14.055315270000   -17.758365870000   -15.051382920000     1.007825032230
         H          -18.566662990000   -17.758365870000   -15.051382920000     1.007825032230
         H          -18.566662990000   -24.502084090000   -12.314222720000     1.007825032230
         H          -14.055315270000   -24.502084090000   -12.314222720000     1.007825032230
         C          -14.999526250000   -19.169571820000   -14.535343570000    12.000000000000
         C          -17.622452010000   -19.169571820000   -14.535343570000    12.000000000000
         C          -17.622452010000   -23.090878140000   -12.830262080000    12.000000000000
         C          -14.999526250000   -23.090878140000   -12.830262080000    12.000000000000

  Charge       = 0
  Multiplicity = 1
  Basis Set: AUG-CC-PVDZ
    Blend: AUG-CC-PVDZ
  Basis Set: (AUG-CC-PVDZ AUX)
    Blend: AUG-CC-PVDZ-JKFIT

    Orbital Energies [Eh]
    ---------------------

    Doubly Occupied:

       1A    -15.598072     2A    -15.598053     3A    -11.274239
       4A    -11.274194     5A    -11.272975     6A    -11.272969
       7A     -1.313347     8A     -1.224176     9A     -1.076803
      10A     -0.922662    11A     -0.919282    12A     -0.760637
      13A     -0.738402    14A     -0.706214    15A     -0.647687
      16A     -0.580711    17A     -0.574369    18A     -0.497113
      19A     -0.434288    20A     -0.415855    21A     -0.359924

  @DF-RHF Final Energy:  -262.63994485071271

   => Energetics <=

    Nuclear Repulsion Energy =            212.5517311104853491
    One-Electron Energy =                -775.4594096238057546
    Two-Electron Energy =                 300.2677336626077249
    Total Energy =                       -262.6399448507127090

  Dipole Moment: [D]
     X:     0.0000      Y:    -0.0000      Z:     0.0000     Total:     0.0000

    SAPT Results
  --------------------------------------------------------------------------------------------------------
    Electrostatics                 -0.00478801 [mEh]      -0.00300452 [kcal/mol]      -0.01257093 [kJ/mol]
      Elst10,r                     -0.00478801 [mEh]      -0.00300452 [kcal/mol]      -0.01257093 [kJ/mol]

    Exchange                        0.00000000 [mEh]       0.00000000 [kcal/mol]       0.00000000 [kJ/mol]
      Exch10                        0.00000000 [mEh]       0.00000000 [kcal/mol]       0.00000000 [kJ/mol]
      Exch10(S^2)                   0.00000000 [mEh]       0.00000000 [kcal/mol]       0.00000000 [kJ/mol]

    Induction                       0.00000339 [mEh]       0.00000213 [kcal/mol]       0.00000891 [kJ/mol]
      Ind20,r                      -0.00001075 [mEh]      -0.00000674 [kcal/mol]      -0.00002822 [kJ/mol]
      Exch-Ind20,r                  0.00000000 [mEh]       0.00000000 [kcal/mol]       0.00000000 [kJ/mol]
      delta HF,r (2)                0.00001414 [mEh]       0.00000887 [kcal/mol]       0.00003713 [kJ/mol]

    Dispersion                     -0.00162375 [mEh]      -0.00101892 [kcal/mol]      -0.00426316 [kJ/mol]
      Disp20                       -0.00162375 [mEh]      -0.00101892 [kcal/mol]      -0.00426316 [kJ/mol]
      Exch-Disp20                   0.00000000 [mEh]       0.00000000 [kcal/mol]       0.00000000 [kJ/mol]
      Disp20 (SS)                  -0.00081188 [mEh]      -0.00050946 [kcal/mol]      -0.00213158 [kJ/mol]
      Disp20 (OS)                  -0.00081188 [mEh]      -0.00050946 [kcal/mol]      -0.00213158 [kJ/mol]
      Exch-Disp20 (SS)              0.00000000 [mEh]       0.00000000 [kcal/mol]       0.00000000 [kJ/mol]
      Exch-Disp20 (OS)              0.00000000 [mEh]       0.00000000 [kcal/mol]       0.00000000 [kJ/mol]

  Total HF                         -0.00478462 [mEh]      -0.00300239 [kcal/mol]      -0.01256201 [kJ/mol]
  Total SAPT0                      -0.00640837 [mEh]      -0.00402131 [kcal/mol]      -0.01682517 [kJ/mol]

  Special recipe for scaled SAPT0 (see Manual):
    Electrostatics sSAPT0          -0.00478801 [mEh]      -0.00300452 [kcal/mol]      -0.01257093 [kJ/mol]
    Exchange sSAPT0                 0.00000000 [mEh]       0.00000000 [kcal/mol]       0.00000000 [kJ/mol]
    Induction sSAPT0                0.00000339 [mEh]       0.00000213 [kcal/mol]       0.00000891 [kJ/mol]
    Dispersion sSAPT0              -0.00162375 [mEh]      -0.00101892 [kcal/mol]      -0.00426316 [kJ/mol]
  Total sSAPT0                     -0.00640837 [mEh]      -0.00402131 [kcal/mol]      -0.01682517 [kJ/mol]
  --------------------------------------------------------------------------------------------------------

*** Psi4 exiting successfully. Buy a developer a beer!
