                               Psi4 1.4.1 release

  ==> Input File <==

--------------------------------------------------------------------------
# PSI4 file produced by CrystaLattE

# Generated from:               pyrazine.xyz
# Psithon input for N-mer:      2mer-0+20
# Number of atoms per monomer:  [10, 10]
# Number of replicas:           2
# COM priority:                 3.560447121976e-04
# Minimum COM separations:      7.466
# Separation priority:          4.542157676894e-04
# Minimum monomer separations:  6.884
# Cutoff priority:              3.491533996457e-05
# Nuclear repulsion energy:     546.5777050275378

memory 7 GB

molecule Dimer_0_20 {
  N           -1.33084758       0.98032658       0.42627037
  N            3.95377333       0.98032658       0.42627037
  H            3.56713674       4.35218569      -0.94230973
  H           -0.94421098       4.35218569      -0.94230973
  H           -0.94421098      -2.39153253       1.79485047
  H            3.56713674      -2.39153253       1.79485047
  C            2.62292576       2.94097974      -0.42627037
  C            0.00000000       2.94097974      -0.42627037
  C            0.00000000      -0.98032658       1.27881112
  C            2.62292576      -0.98032658       1.27881112
--
  N           -1.33084758       0.98032658     -13.68280282
  N            3.95377333       0.98032658     -13.68280282
  H            3.56713674       4.35218569     -15.05138292
  H           -0.94421098       4.35218569     -15.05138292
  H           -0.94421098      -2.39153253     -12.31422272
  H            3.56713674      -2.39153253     -12.31422272
  C            2.62292576       2.94097974     -14.53534357
  C            0.00000000       2.94097974     -14.53534357
  C            0.00000000      -0.98032658     -12.83026208
  C            2.62292576      -0.98032658     -12.83026208
units = au
no_com
no_reorient
}

set {
  e_convergence 10
  d_convergence 10
  scf_type df
  mp2_type df
  cc_type df
  freeze_core true
}

energy('sapt0/aug-cc-pvdz')

--------------------------------------------------------------------------

  //              Dimer HF             //
    Molecular point group: c1
  Charge       = 0
  Multiplicity = 1
  Basis Set: AUG-CC-PVDZ
    Blend: AUG-CC-PVDZ
  Basis Set: (AUG-CC-PVDZ AUX)
    Blend: AUG-CC-PVDZ-JKFIT
  @DF-RHF Final Energy:  -525.27992875427810
    Total Energy =                       -525.2799287542781030
  //            Monomer A HF           //
    Molecular point group: c1
  Multiplicity = 1
  Basis Set: AUG-CC-PVDZ
    Blend: AUG-CC-PVDZ
  Basis Set: (AUG-CC-PVDZ AUX)
    Blend: AUG-CC-PVDZ-JKFIT
  @DF-RHF Final Energy:  -262.63997983574808
    Total Energy =                       -262.6399798357480790
  //            Monomer B HF           //
    Molecular point group: c1

    Geometry (in Bohr), charge = 0, multiplicity = 1:

       Center              X                  Y                   Z               Mass
    ------------   -----------------  -----------------  -----------------  -----------------
      Gh(N)          -1.330847580000     0.980326580000     0.426270370000    14.003074004430
      Gh(N)           3.953773330000     0.980326580000     0.426270370000    14.003074004430
      Gh(H)           3.567136740000     4.352185690000    -0.942309730000     1.007825032230
      Gh(H)          -0.944210980000     4.352185690000    -0.942309730000     1.007825032230
      Gh(H)          -0.944210980000    -2.391532530000     1.794850470000     1.007825032230
      Gh(H)           3.567136740000    -2.391532530000     1.794850470000     1.007825032230
      Gh(C)           2.622925760000     2.940979740000    -0.426270370000    12.000000000000
      Gh(C)           0.000000000000     2.940979740000    -0.426270370000    12.000000000000
      Gh(C)           0.000000000000    -0.980326580000     1.278811120000    12.000000000000
      Gh(C)           2.622925760000    -0.980326580000     1.278811120000    12.000000000000
         N           -1.330847580000     0.980326580000   -13.682802820000    14.003074004430
         N            3.953773330000     0.980326580000   -13.682802820000    14.003074004430
         H            3.567136740000     4.352185690000   -15.051382920000     1.007825032230
         H           -0.944210980000     4.352185690000   -15.051382920000     1.007825032230
         H           -0.944210980000    -2.391532530000   -12.314222720000     1.007825032230
         H            3.567136740000    -2.391532530000   -12.314222720000     1.007825032230
         C            2.622925760000     2.940979740000   -14.535343570000    12.000000000000
         C            0.000000000000     2.940979740000   -14.535343570000    12.000000000000
         C            0.000000000000    -0.980326580000   -12.830262080000    12.000000000000
         C            2.622925760000    -0.980326580000   -12.830262080000    12.000000000000

  Charge       = 0
  Multiplicity = 1
  Basis Set: AUG-CC-PVDZ
    Blend: AUG-CC-PVDZ
  Basis Set: (AUG-CC-PVDZ AUX)
    Blend: AUG-CC-PVDZ-JKFIT

    Orbital Energies [Eh]
    ---------------------

    Doubly Occupied:

       1A    -15.598072     2A    -15.598053     3A    -11.274232
       4A    -11.274186     5A    -11.272969     6A    -11.272960
       7A     -1.313346     8A     -1.224175     9A     -1.076803
      10A     -0.922662    11A     -0.919283    12A     -0.760638
      13A     -0.738401    14A     -0.706214    15A     -0.647687
      16A     -0.580712    17A     -0.574371    18A     -0.497112
      19A     -0.434289    20A     -0.415856    21A     -0.359924

  @DF-RHF Final Energy:  -262.63997983716979

   => Energetics <=

    Nuclear Repulsion Energy =            212.5517311104853491
    One-Electron Energy =                -775.4595305228989446
    Two-Electron Energy =                 300.2678195752438342
    Total Energy =                       -262.6399798371697898

  Dipole Moment: [D]
     X:     0.0000      Y:    -0.0003      Z:    -0.0000     Total:     0.0003

    SAPT Results
  --------------------------------------------------------------------------------------------------------
    Electrostatics                  0.03236707 [mEh]       0.02031064 [kcal/mol]       0.08497972 [kJ/mol]
      Elst10,r                      0.03236707 [mEh]       0.02031064 [kcal/mol]       0.08497972 [kJ/mol]

    Exchange                        0.00010421 [mEh]       0.00006540 [kcal/mol]       0.00027361 [kJ/mol]
      Exch10                        0.00010421 [mEh]       0.00006540 [kcal/mol]       0.00027361 [kJ/mol]
      Exch10(S^2)                   0.00010421 [mEh]       0.00006540 [kcal/mol]       0.00027361 [kJ/mol]

    Induction                      -0.00155264 [mEh]      -0.00097430 [kcal/mol]      -0.00407646 [kJ/mol]
      Ind20,r                      -0.00181827 [mEh]      -0.00114098 [kcal/mol]      -0.00477386 [kJ/mol]
      Exch-Ind20,r                  0.00009134 [mEh]       0.00005732 [kcal/mol]       0.00023982 [kJ/mol]
      delta HF,r (2)                0.00017429 [mEh]       0.00010937 [kcal/mol]       0.00045759 [kJ/mol]

    Dispersion                     -0.17882185 [mEh]      -0.11221241 [kcal/mol]      -0.46949671 [kJ/mol]
      Disp20                       -0.17887604 [mEh]      -0.11224641 [kcal/mol]      -0.46963897 [kJ/mol]
      Exch-Disp20                   0.00005418 [mEh]       0.00003400 [kcal/mol]       0.00014226 [kJ/mol]
      Disp20 (SS)                  -0.08943802 [mEh]      -0.05612320 [kcal/mol]      -0.23481949 [kJ/mol]
      Disp20 (OS)                  -0.08943802 [mEh]      -0.05612320 [kcal/mol]      -0.23481949 [kJ/mol]
      Exch-Disp20 (SS)              0.00004197 [mEh]       0.00002634 [kcal/mol]       0.00011020 [kJ/mol]
      Exch-Disp20 (OS)              0.00001221 [mEh]       0.00000766 [kcal/mol]       0.00003206 [kJ/mol]

  Total HF                          0.03091864 [mEh]       0.01940174 [kcal/mol]       0.08117688 [kJ/mol]
  Total SAPT0                      -0.14790321 [mEh]      -0.09281067 [kcal/mol]      -0.38831984 [kJ/mol]

  Special recipe for scaled SAPT0 (see Manual):
    Electrostatics sSAPT0           0.03236707 [mEh]       0.02031064 [kcal/mol]       0.08497972 [kJ/mol]
    Exchange sSAPT0                 0.00010421 [mEh]       0.00006540 [kcal/mol]       0.00027361 [kJ/mol]
    Induction sSAPT0               -0.00155264 [mEh]      -0.00097430 [kcal/mol]      -0.00407646 [kJ/mol]
    Dispersion sSAPT0              -0.17882185 [mEh]      -0.11221241 [kcal/mol]      -0.46949671 [kJ/mol]
  Total sSAPT0                     -0.14790321 [mEh]      -0.09281067 [kcal/mol]      -0.38831984 [kJ/mol]
  --------------------------------------------------------------------------------------------------------

*** Psi4 exiting successfully. Buy a developer a beer!
