                               Psi4 1.4.1 release

  ==> Input File <==

--------------------------------------------------------------------------
# PSI4 file produced by CrystaLattE

# Generated from:               pyrazine.xyz
# Psithon input for N-mer:      2mer-0+282
# Number of atoms per monomer:  [10, 10]
# Number of replicas:           8
# COM priority:                 1.808976940230e-05
# Minimum COM separations:      20.158
# Separation priority:          2.878423068561e-05
# Minimum monomer separations:  17.267
# Cutoff priority:              8.821440356401e-07
# Nuclear repulsion energy:     471.37303518909243

memory 7 GB

molecule Dimer_0_282 {
  N           -1.33084758       0.98032658       0.42627037
  N            3.95377333       0.98032658       0.42627037
  H            3.56713674       4.35218569      -0.94230973
  H           -0.94421098       4.35218569      -0.94230973
  H           -0.94421098      -2.39153253       1.79485047
  H            3.56713674      -2.39153253       1.79485047
  C            2.62292576       2.94097974      -0.42627037
  C            0.00000000       2.94097974      -0.42627037
  C            0.00000000      -0.98032658       1.27881112
  C            2.62292576      -0.98032658       1.27881112
--
  N          -10.14207358     -26.65786287     -24.26460772
  N           -4.85745267     -26.65786287     -24.26460772
  H           -9.75543698     -30.02972198     -25.63318782
  H           -9.75543698     -23.28600376     -22.89602762
  H           -5.24408927     -30.02972198     -25.63318782
  H           -5.24408927     -23.28600376     -22.89602762
  C           -8.81122601     -28.61851603     -25.11714847
  C           -8.81122601     -24.69720971     -23.41206697
  C           -6.18830025     -28.61851603     -25.11714847
  C           -6.18830025     -24.69720971     -23.41206697
units = au
no_com
no_reorient
}

set {
  e_convergence 10
  d_convergence 10
  scf_type df
  mp2_type df
  cc_type df
  freeze_core true
}

energy('sapt0/aug-cc-pvdz')

--------------------------------------------------------------------------

  //              Dimer HF             //
    Molecular point group: c1
  Charge       = 0
  Multiplicity = 1
  Basis Set: AUG-CC-PVDZ
    Blend: AUG-CC-PVDZ
  Basis Set: (AUG-CC-PVDZ AUX)
    Blend: AUG-CC-PVDZ-JKFIT
  @DF-RHF Final Energy:  -525.27989081896703
    Total Energy =                       -525.2798908189670328
  //            Monomer A HF           //
    Molecular point group: c1
  Multiplicity = 1
  Basis Set: AUG-CC-PVDZ
    Blend: AUG-CC-PVDZ
  Basis Set: (AUG-CC-PVDZ AUX)
    Blend: AUG-CC-PVDZ-JKFIT
  @DF-RHF Final Energy:  -262.63994485242324
    Total Energy =                       -262.6399448524232412
  //            Monomer B HF           //
    Molecular point group: c1

    Geometry (in Bohr), charge = 0, multiplicity = 1:

       Center              X                  Y                   Z               Mass
    ------------   -----------------  -----------------  -----------------  -----------------
      Gh(N)          -1.330847580000     0.980326580000     0.426270370000    14.003074004430
      Gh(N)           3.953773330000     0.980326580000     0.426270370000    14.003074004430
      Gh(H)           3.567136740000     4.352185690000    -0.942309730000     1.007825032230
      Gh(H)          -0.944210980000     4.352185690000    -0.942309730000     1.007825032230
      Gh(H)          -0.944210980000    -2.391532530000     1.794850470000     1.007825032230
      Gh(H)           3.567136740000    -2.391532530000     1.794850470000     1.007825032230
      Gh(C)           2.622925760000     2.940979740000    -0.426270370000    12.000000000000
      Gh(C)           0.000000000000     2.940979740000    -0.426270370000    12.000000000000
      Gh(C)           0.000000000000    -0.980326580000     1.278811120000    12.000000000000
      Gh(C)           2.622925760000    -0.980326580000     1.278811120000    12.000000000000
         N          -10.142073580000   -26.657862870000   -24.264607720000    14.003074004430
         N           -4.857452670000   -26.657862870000   -24.264607720000    14.003074004430
         H           -9.755436980000   -30.029721980000   -25.633187820000     1.007825032230
         H           -9.755436980000   -23.286003760000   -22.896027620000     1.007825032230
         H           -5.244089270000   -30.029721980000   -25.633187820000     1.007825032230
         H           -5.244089270000   -23.286003760000   -22.896027620000     1.007825032230
         C           -8.811226010000   -28.618516030000   -25.117148470000    12.000000000000
         C           -8.811226010000   -24.697209710000   -23.412066970000    12.000000000000
         C           -6.188300250000   -28.618516030000   -25.117148470000    12.000000000000
         C           -6.188300250000   -24.697209710000   -23.412066970000    12.000000000000

  Charge       = 0
  Multiplicity = 1
  Basis Set: AUG-CC-PVDZ
    Blend: AUG-CC-PVDZ
  Basis Set: (AUG-CC-PVDZ AUX)
    Blend: AUG-CC-PVDZ-JKFIT

    Orbital Energies [Eh]
    ---------------------

    Doubly Occupied:

       1A    -15.598072     2A    -15.598053     3A    -11.274239
       4A    -11.274194     5A    -11.272975     6A    -11.272969
       7A     -1.313347     8A     -1.224176     9A     -1.076803
      10A     -0.922662    11A     -0.919282    12A     -0.760637
      13A     -0.738402    14A     -0.706214    15A     -0.647687
      16A     -0.580711    17A     -0.574369    18A     -0.497113
      19A     -0.434288    20A     -0.415855    21A     -0.359924

  @DF-RHF Final Energy:  -262.63994484752209

   => Energetics <=

    Nuclear Repulsion Energy =            212.5517310749281421
    One-Electron Energy =                -775.4594095513680259
    Two-Electron Energy =                 300.2677336289177674
    Total Energy =                       -262.6399448475220879

  Dipole Moment: [D]
     X:     0.0000      Y:    -0.0000      Z:    -0.0000     Total:     0.0000

    SAPT Results
  --------------------------------------------------------------------------------------------------------
    Electrostatics                 -0.00111928 [mEh]      -0.00070236 [kcal/mol]      -0.00293866 [kJ/mol]
      Elst10,r                     -0.00111928 [mEh]      -0.00070236 [kcal/mol]      -0.00293866 [kJ/mol]

    Exchange                        0.00000000 [mEh]       0.00000000 [kcal/mol]       0.00000000 [kJ/mol]
      Exch10                        0.00000000 [mEh]       0.00000000 [kcal/mol]       0.00000000 [kJ/mol]
      Exch10(S^2)                   0.00000000 [mEh]       0.00000000 [kcal/mol]       0.00000000 [kJ/mol]

    Induction                       0.00000026 [mEh]       0.00000016 [kcal/mol]       0.00000067 [kJ/mol]
      Ind20,r                      -0.00000306 [mEh]      -0.00000192 [kcal/mol]      -0.00000802 [kJ/mol]
      Exch-Ind20,r                  0.00000000 [mEh]       0.00000000 [kcal/mol]       0.00000000 [kJ/mol]
      delta HF,r (2)                0.00000331 [mEh]       0.00000208 [kcal/mol]       0.00000870 [kJ/mol]

    Dispersion                     -0.00053677 [mEh]      -0.00033683 [kcal/mol]      -0.00140929 [kJ/mol]
      Disp20                       -0.00053677 [mEh]      -0.00033683 [kcal/mol]      -0.00140929 [kJ/mol]
      Exch-Disp20                   0.00000000 [mEh]       0.00000000 [kcal/mol]       0.00000000 [kJ/mol]
      Disp20 (SS)                  -0.00026838 [mEh]      -0.00016841 [kcal/mol]      -0.00070464 [kJ/mol]
      Disp20 (OS)                  -0.00026838 [mEh]      -0.00016841 [kcal/mol]      -0.00070464 [kJ/mol]
      Exch-Disp20 (SS)              0.00000000 [mEh]       0.00000000 [kcal/mol]       0.00000000 [kJ/mol]
      Exch-Disp20 (OS)              0.00000000 [mEh]       0.00000000 [kcal/mol]       0.00000000 [kJ/mol]

  Total HF                         -0.00111902 [mEh]      -0.00070220 [kcal/mol]      -0.00293799 [kJ/mol]
  Total SAPT0                      -0.00165579 [mEh]      -0.00103902 [kcal/mol]      -0.00434728 [kJ/mol]

  Special recipe for scaled SAPT0 (see Manual):
    Electrostatics sSAPT0          -0.00111928 [mEh]      -0.00070236 [kcal/mol]      -0.00293866 [kJ/mol]
    Exchange sSAPT0                 0.00000000 [mEh]       0.00000000 [kcal/mol]       0.00000000 [kJ/mol]
    Induction sSAPT0                0.00000026 [mEh]       0.00000016 [kcal/mol]       0.00000067 [kJ/mol]
    Dispersion sSAPT0              -0.00053677 [mEh]      -0.00033683 [kcal/mol]      -0.00140929 [kJ/mol]
  Total sSAPT0                     -0.00165579 [mEh]      -0.00103902 [kcal/mol]      -0.00434728 [kJ/mol]
  --------------------------------------------------------------------------------------------------------

*** Psi4 exiting successfully. Buy a developer a beer!
