                               Psi4 1.4.1 release

  ==> Input File <==

--------------------------------------------------------------------------
# PSI4 file produced by CrystaLattE

# Generated from:               pyrazine.xyz
# Psithon input for N-mer:      2mer-0+98
# Number of atoms per monomer:  [10, 10]
# Number of replicas:           8
# COM priority:                 4.950239317344e-05
# Minimum COM separations:      14.412
# Separation priority:          9.718061388851e-05
# Minimum monomer separations:  11.510
# Cutoff priority:              4.467928188419e-06
# Nuclear repulsion energy:     490.1804043686618

memory 7 GB

molecule Dimer_0_98 {
  N           -1.33084758       0.98032658       0.42627037
  N            3.95377333       0.98032658       0.42627037
  H            3.56713674       4.35218569      -0.94230973
  H           -0.94421098       4.35218569      -0.94230973
  H           -0.94421098      -2.39153253       1.79485047
  H            3.56713674      -2.39153253       1.79485047
  C            2.62292576       2.94097974      -0.42627037
  C            0.00000000       2.94097974      -0.42627037
  C            0.00000000      -0.98032658       1.27881112
  C            2.62292576      -0.98032658       1.27881112
--
  N          -27.76452559      -4.54731131      -3.10099793
  N          -22.47990468      -4.54731131      -3.10099793
  H          -27.37788899      -7.91917042      -4.46957803
  H          -27.37788899      -1.17545220      -1.73241783
  H          -22.86654128      -7.91917042      -4.46957803
  H          -22.86654128      -1.17545220      -1.73241783
  C          -26.43367802      -6.50796447      -3.95353867
  C          -26.43367802      -2.58665815      -2.24845718
  C          -23.81075226      -6.50796447      -3.95353867
  C          -23.81075226      -2.58665815      -2.24845718
units = au
no_com
no_reorient
}

set {
  e_convergence 10
  d_convergence 10
  scf_type df
  mp2_type df
  cc_type df
  freeze_core true
}

energy('sapt0/aug-cc-pvdz')

--------------------------------------------------------------------------

  //              Dimer HF             //
    Molecular point group: c1
  Charge       = 0
  Multiplicity = 1
  Basis Set: AUG-CC-PVDZ
    Blend: AUG-CC-PVDZ
  Basis Set: (AUG-CC-PVDZ AUX)
    Blend: AUG-CC-PVDZ-JKFIT
  @DF-RHF Final Energy:  -525.27987319885960
    Total Energy =                       -525.2798731988596046
  //            Monomer A HF           //
    Molecular point group: c1
  Multiplicity = 1
  Basis Set: AUG-CC-PVDZ
    Blend: AUG-CC-PVDZ
  Basis Set: (AUG-CC-PVDZ AUX)
    Blend: AUG-CC-PVDZ-JKFIT
  @DF-RHF Final Energy:  -262.63994493728484
    Total Energy =                       -262.6399449372848380
  //            Monomer B HF           //
    Molecular point group: c1

    Geometry (in Bohr), charge = 0, multiplicity = 1:

       Center              X                  Y                   Z               Mass
    ------------   -----------------  -----------------  -----------------  -----------------
      Gh(N)          -1.330847580000     0.980326580000     0.426270370000    14.003074004430
      Gh(N)           3.953773330000     0.980326580000     0.426270370000    14.003074004430
      Gh(H)           3.567136740000     4.352185690000    -0.942309730000     1.007825032230
      Gh(H)          -0.944210980000     4.352185690000    -0.942309730000     1.007825032230
      Gh(H)          -0.944210980000    -2.391532530000     1.794850470000     1.007825032230
      Gh(H)           3.567136740000    -2.391532530000     1.794850470000     1.007825032230
      Gh(C)           2.622925760000     2.940979740000    -0.426270370000    12.000000000000
      Gh(C)           0.000000000000     2.940979740000    -0.426270370000    12.000000000000
      Gh(C)           0.000000000000    -0.980326580000     1.278811120000    12.000000000000
      Gh(C)           2.622925760000    -0.980326580000     1.278811120000    12.000000000000
         N          -27.764525590000    -4.547311310000    -3.100997930000    14.003074004430
         N          -22.479904680000    -4.547311310000    -3.100997930000    14.003074004430
         H          -27.377888990000    -7.919170420000    -4.469578030000     1.007825032230
         H          -27.377888990000    -1.175452200000    -1.732417830000     1.007825032230
         H          -22.866541280000    -7.919170420000    -4.469578030000     1.007825032230
         H          -22.866541280000    -1.175452200000    -1.732417830000     1.007825032230
         C          -26.433678020000    -6.507964470000    -3.953538670000    12.000000000000
         C          -26.433678020000    -2.586658150000    -2.248457180000    12.000000000000
         C          -23.810752260000    -6.507964470000    -3.953538670000    12.000000000000
         C          -23.810752260000    -2.586658150000    -2.248457180000    12.000000000000

  Charge       = 0
  Multiplicity = 1
  Basis Set: AUG-CC-PVDZ
    Blend: AUG-CC-PVDZ
  Basis Set: (AUG-CC-PVDZ AUX)
    Blend: AUG-CC-PVDZ-JKFIT

    Orbital Energies [Eh]
    ---------------------

    Doubly Occupied:

       1A    -15.598072     2A    -15.598053     3A    -11.274239
       4A    -11.274194     5A    -11.272975     6A    -11.272969
       7A     -1.313347     8A     -1.224176     9A     -1.076803
      10A     -0.922662    11A     -0.919282    12A     -0.760637
      13A     -0.738402    14A     -0.706214    15A     -0.647687
      16A     -0.580711    17A     -0.574369    18A     -0.497113
      19A     -0.434288    20A     -0.415855    21A     -0.359924

  @DF-RHF Final Energy:  -262.63994490958214

   => Energetics <=

    Nuclear Repulsion Energy =            212.5517311431129315
    One-Electron Energy =                -775.4594102455992015
    Two-Electron Energy =                 300.2677341929041859
    Total Energy =                       -262.6399449095821410

  Dipole Moment: [D]
     X:     0.0000      Y:     0.0000      Z:     0.0000     Total:     0.0000

    SAPT Results
  --------------------------------------------------------------------------------------------------------
    Electrostatics                  0.01666196 [mEh]       0.01045554 [kcal/mol]       0.04374598 [kJ/mol]
      Elst10,r                      0.01666196 [mEh]       0.01045554 [kcal/mol]       0.04374598 [kJ/mol]

    Exchange                        0.00000010 [mEh]       0.00000006 [kcal/mol]       0.00000027 [kJ/mol]
      Exch10                        0.00000010 [mEh]       0.00000006 [kcal/mol]       0.00000027 [kJ/mol]
      Exch10(S^2)                   0.00000010 [mEh]       0.00000006 [kcal/mol]       0.00000027 [kJ/mol]

    Induction                      -0.00001406 [mEh]      -0.00000882 [kcal/mol]      -0.00003691 [kJ/mol]
      Ind20,r                      -0.00011104 [mEh]      -0.00006968 [kcal/mol]      -0.00029154 [kJ/mol]
      Exch-Ind20,r                  0.00000018 [mEh]       0.00000011 [kcal/mol]       0.00000046 [kJ/mol]
      delta HF,r (2)                0.00009681 [mEh]       0.00006075 [kcal/mol]       0.00025417 [kJ/mol]

    Dispersion                     -0.00506202 [mEh]      -0.00317647 [kcal/mol]      -0.01329033 [kJ/mol]
      Disp20                       -0.00506203 [mEh]      -0.00317647 [kcal/mol]      -0.01329036 [kJ/mol]
      Exch-Disp20                   0.00000001 [mEh]       0.00000001 [kcal/mol]       0.00000002 [kJ/mol]
      Disp20 (SS)                  -0.00253101 [mEh]      -0.00158824 [kcal/mol]      -0.00664518 [kJ/mol]
      Disp20 (OS)                  -0.00253101 [mEh]      -0.00158824 [kcal/mol]      -0.00664518 [kJ/mol]
      Exch-Disp20 (SS)              0.00000001 [mEh]       0.00000000 [kcal/mol]       0.00000002 [kJ/mol]
      Exch-Disp20 (OS)              0.00000000 [mEh]       0.00000000 [kcal/mol]       0.00000000 [kJ/mol]

  Total HF                          0.01664801 [mEh]       0.01044678 [kcal/mol]       0.04370934 [kJ/mol]
  Total SAPT0                       0.01158599 [mEh]       0.00727032 [kcal/mol]       0.03041900 [kJ/mol]

  Special recipe for scaled SAPT0 (see Manual):
    Electrostatics sSAPT0           0.01666196 [mEh]       0.01045554 [kcal/mol]       0.04374598 [kJ/mol]
    Exchange sSAPT0                 0.00000010 [mEh]       0.00000006 [kcal/mol]       0.00000027 [kJ/mol]
    Induction sSAPT0               -0.00001406 [mEh]      -0.00000882 [kcal/mol]      -0.00003691 [kJ/mol]
    Dispersion sSAPT0              -0.00506202 [mEh]      -0.00317647 [kcal/mol]      -0.01329033 [kJ/mol]
  Total sSAPT0                      0.01158599 [mEh]       0.00727032 [kcal/mol]       0.03041900 [kJ/mol]
  --------------------------------------------------------------------------------------------------------

*** Psi4 exiting successfully. Buy a developer a beer!
