                               Psi4 1.4.1 release

  ==> Input File <==

--------------------------------------------------------------------------
# PSI4 file produced by CrystaLattE

# Generated from:               pyrazine.xyz
# Psithon input for N-mer:      2mer-0+404
# Number of atoms per monomer:  [10, 10]
# Number of replicas:           8
# COM priority:                 1.542746549035e-05
# Minimum COM separations:      21.257
# Separation priority:          2.017007602913e-05
# Minimum monomer separations:  19.440
# Cutoff priority:              5.490476625805e-07
# Nuclear repulsion energy:     468.8743945832206

memory 7 GB

molecule Dimer_0_404 {
  N           -1.33084758       0.98032658       0.42627037
  N            3.95377333       0.98032658       0.42627037
  H            3.56713674       4.35218569      -0.94230973
  H           -0.94421098       4.35218569      -0.94230973
  H           -0.94421098      -2.39153253       1.79485047
  H            3.56713674      -2.39153253       1.79485047
  C            2.62292576       2.94097974      -0.42627037
  C            0.00000000       2.94097974      -0.42627037
  C            0.00000000      -0.98032658       1.27881112
  C            2.62292576      -0.98032658       1.27881112
--
  N          -10.14207358      -4.54731131     -38.37368092
  N           -4.85745267      -4.54731131     -38.37368092
  H           -9.75543698      -7.91917042     -39.74226102
  H           -9.75543698      -1.17545220     -37.00510082
  H           -5.24408927      -7.91917042     -39.74226102
  H           -5.24408927      -1.17545220     -37.00510082
  C           -8.81122601      -6.50796447     -39.22622167
  C           -8.81122601      -2.58665815     -37.52114017
  C           -6.18830025      -6.50796447     -39.22622167
  C           -6.18830025      -2.58665815     -37.52114017
units = au
no_com
no_reorient
}

set {
  e_convergence 10
  d_convergence 10
  scf_type df
  mp2_type df
  cc_type df
  freeze_core true
}

energy('sapt0/aug-cc-pvdz')

--------------------------------------------------------------------------

  //              Dimer HF             //
    Molecular point group: c1
  Charge       = 0
  Multiplicity = 1
  Basis Set: AUG-CC-PVDZ
    Blend: AUG-CC-PVDZ
  Basis Set: (AUG-CC-PVDZ AUX)
    Blend: AUG-CC-PVDZ-JKFIT
  @DF-RHF Final Energy:  -525.27988866282271
    Total Energy =                       -525.2798886628227137
  //            Monomer A HF           //
    Molecular point group: c1
  Multiplicity = 1
  Basis Set: AUG-CC-PVDZ
    Blend: AUG-CC-PVDZ
  Basis Set: (AUG-CC-PVDZ AUX)
    Blend: AUG-CC-PVDZ-JKFIT
  @DF-RHF Final Energy:  -262.63994485051654
    Total Energy =                       -262.6399448505165424
  //            Monomer B HF           //
    Molecular point group: c1

    Geometry (in Bohr), charge = 0, multiplicity = 1:

       Center              X                  Y                   Z               Mass
    ------------   -----------------  -----------------  -----------------  -----------------
      Gh(N)          -1.330847580000     0.980326580000     0.426270370000    14.003074004430
      Gh(N)           3.953773330000     0.980326580000     0.426270370000    14.003074004430
      Gh(H)           3.567136740000     4.352185690000    -0.942309730000     1.007825032230
      Gh(H)          -0.944210980000     4.352185690000    -0.942309730000     1.007825032230
      Gh(H)          -0.944210980000    -2.391532530000     1.794850470000     1.007825032230
      Gh(H)           3.567136740000    -2.391532530000     1.794850470000     1.007825032230
      Gh(C)           2.622925760000     2.940979740000    -0.426270370000    12.000000000000
      Gh(C)           0.000000000000     2.940979740000    -0.426270370000    12.000000000000
      Gh(C)           0.000000000000    -0.980326580000     1.278811120000    12.000000000000
      Gh(C)           2.622925760000    -0.980326580000     1.278811120000    12.000000000000
         N          -10.142073580000    -4.547311310000   -38.373680920000    14.003074004430
         N           -4.857452670000    -4.547311310000   -38.373680920000    14.003074004430
         H           -9.755436980000    -7.919170420000   -39.742261020000     1.007825032230
         H           -9.755436980000    -1.175452200000   -37.005100820000     1.007825032230
         H           -5.244089270000    -7.919170420000   -39.742261020000     1.007825032230
         H           -5.244089270000    -1.175452200000   -37.005100820000     1.007825032230
         C           -8.811226010000    -6.507964470000   -39.226221670000    12.000000000000
         C           -8.811226010000    -2.586658150000   -37.521140170000    12.000000000000
         C           -6.188300250000    -6.507964470000   -39.226221670000    12.000000000000
         C           -6.188300250000    -2.586658150000   -37.521140170000    12.000000000000

  Charge       = 0
  Multiplicity = 1
  Basis Set: AUG-CC-PVDZ
    Blend: AUG-CC-PVDZ
  Basis Set: (AUG-CC-PVDZ AUX)
    Blend: AUG-CC-PVDZ-JKFIT

    Orbital Energies [Eh]
    ---------------------

    Doubly Occupied:

       1A    -15.598072     2A    -15.598053     3A    -11.274239
       4A    -11.274194     5A    -11.272975     6A    -11.272969
       7A     -1.313347     8A     -1.224176     9A     -1.076803
      10A     -0.922662    11A     -0.919282    12A     -0.760637
      13A     -0.738402    14A     -0.706214    15A     -0.647687
      16A     -0.580711    17A     -0.574369    18A     -0.497113
      19A     -0.434288    20A     -0.415855    21A     -0.359924

  @DF-RHF Final Energy:  -262.63994484907960

   => Energetics <=

    Nuclear Repulsion Energy =            212.5517310749281421
    One-Electron Energy =                -775.4594095623943986
    Two-Electron Energy =                 300.2677336383866304
    Total Energy =                       -262.6399448490795976

  Dipole Moment: [D]
     X:     0.0000      Y:    -0.0000      Z:    -0.0000     Total:     0.0000

    SAPT Results
  --------------------------------------------------------------------------------------------------------
    Electrostatics                  0.00103074 [mEh]       0.00064680 [kcal/mol]       0.00270620 [kJ/mol]
      Elst10,r                      0.00103074 [mEh]       0.00064680 [kcal/mol]       0.00270620 [kJ/mol]

    Exchange                        0.00000000 [mEh]       0.00000000 [kcal/mol]       0.00000000 [kJ/mol]
      Exch10                        0.00000000 [mEh]       0.00000000 [kcal/mol]       0.00000000 [kJ/mol]
      Exch10(S^2)                   0.00000000 [mEh]       0.00000000 [kcal/mol]       0.00000000 [kJ/mol]

    Induction                       0.00000604 [mEh]       0.00000379 [kcal/mol]       0.00001585 [kJ/mol]
      Ind20,r                      -0.00000062 [mEh]      -0.00000039 [kcal/mol]      -0.00000164 [kJ/mol]
      Exch-Ind20,r                  0.00000000 [mEh]       0.00000000 [kcal/mol]       0.00000000 [kJ/mol]
      delta HF,r (2)                0.00000666 [mEh]       0.00000418 [kcal/mol]       0.00001749 [kJ/mol]

    Dispersion                     -0.00034689 [mEh]      -0.00021768 [kcal/mol]      -0.00091076 [kJ/mol]
      Disp20                       -0.00034689 [mEh]      -0.00021768 [kcal/mol]      -0.00091076 [kJ/mol]
      Exch-Disp20                   0.00000000 [mEh]       0.00000000 [kcal/mol]       0.00000000 [kJ/mol]
      Disp20 (SS)                  -0.00017345 [mEh]      -0.00010884 [kcal/mol]      -0.00045538 [kJ/mol]
      Disp20 (OS)                  -0.00017345 [mEh]      -0.00010884 [kcal/mol]      -0.00045538 [kJ/mol]
      Exch-Disp20 (SS)              0.00000000 [mEh]       0.00000000 [kcal/mol]       0.00000000 [kJ/mol]
      Exch-Disp20 (OS)              0.00000000 [mEh]       0.00000000 [kcal/mol]       0.00000000 [kJ/mol]

  Total HF                          0.00103677 [mEh]       0.00065059 [kcal/mol]       0.00272205 [kJ/mol]
  Total SAPT0                       0.00068988 [mEh]       0.00043291 [kcal/mol]       0.00181129 [kJ/mol]

  Special recipe for scaled SAPT0 (see Manual):
    Electrostatics sSAPT0           0.00103074 [mEh]       0.00064680 [kcal/mol]       0.00270620 [kJ/mol]
    Exchange sSAPT0                 0.00000000 [mEh]       0.00000000 [kcal/mol]       0.00000000 [kJ/mol]
    Induction sSAPT0                0.00000604 [mEh]       0.00000379 [kcal/mol]       0.00001585 [kJ/mol]
    Dispersion sSAPT0              -0.00034689 [mEh]      -0.00021768 [kcal/mol]      -0.00091076 [kJ/mol]
  Total sSAPT0                      0.00068988 [mEh]       0.00043291 [kcal/mol]       0.00181129 [kJ/mol]
  --------------------------------------------------------------------------------------------------------

*** Psi4 exiting successfully. Buy a developer a beer!
