                               Psi4 1.4.1 release

  ==> Input File <==

--------------------------------------------------------------------------
# PSI4 file produced by CrystaLattE

# Generated from:               pyrazine.xyz
# Psithon input for N-mer:      2mer-0+223
# Number of atoms per monomer:  [10, 10]
# Number of replicas:           8
# COM priority:                 2.171503074859e-05
# Minimum COM separations:      18.968
# Separation priority:          3.776232018801e-05
# Minimum monomer separations:  15.773
# Cutoff priority:              1.266907460941e-06
# Nuclear repulsion energy:     474.3571240592928

memory 7 GB

molecule Dimer_0_223 {
  N           -1.33084758       0.98032658       0.42627037
  N            3.95377333       0.98032658       0.42627037
  H            3.56713674       4.35218569      -0.94230973
  H           -0.94421098       4.35218569      -0.94230973
  H           -0.94421098      -2.39153253       1.79485047
  H            3.56713674      -2.39153253       1.79485047
  C            2.62292576       2.94097974      -0.42627037
  C            0.00000000       2.94097974      -0.42627037
  C            0.00000000      -0.98032658       1.27881112
  C            2.62292576      -0.98032658       1.27881112
--
  N          -27.76452559     -15.60258709     -17.21007112
  N          -22.47990468     -15.60258709     -17.21007112
  H          -27.37788899     -18.97444620     -18.57865122
  H          -27.37788899     -12.23072798     -15.84149102
  H          -22.86654128     -18.97444620     -18.57865122
  H          -22.86654128     -12.23072798     -15.84149102
  C          -26.43367802     -17.56324025     -18.06261187
  C          -26.43367802     -13.64193393     -16.35753038
  C          -23.81075226     -17.56324025     -18.06261187
  C          -23.81075226     -13.64193393     -16.35753038
units = au
no_com
no_reorient
}

set {
  e_convergence 10
  d_convergence 10
  scf_type df
  mp2_type df
  cc_type df
  freeze_core true
}

energy('sapt0/aug-cc-pvdz')

--------------------------------------------------------------------------

  //              Dimer HF             //
    Molecular point group: c1
  Charge       = 0
  Multiplicity = 1
  Basis Set: AUG-CC-PVDZ
    Blend: AUG-CC-PVDZ
  Basis Set: (AUG-CC-PVDZ AUX)
    Blend: AUG-CC-PVDZ-JKFIT
  @DF-RHF Final Energy:  -525.27989258704497
    Total Energy =                       -525.2798925870449693
  //            Monomer A HF           //
    Molecular point group: c1
  Multiplicity = 1
  Basis Set: AUG-CC-PVDZ
    Blend: AUG-CC-PVDZ
  Basis Set: (AUG-CC-PVDZ AUX)
    Blend: AUG-CC-PVDZ-JKFIT
  @DF-RHF Final Energy:  -262.63994485036233
    Total Energy =                       -262.6399448503623262
  //            Monomer B HF           //
    Molecular point group: c1

    Geometry (in Bohr), charge = 0, multiplicity = 1:

       Center              X                  Y                   Z               Mass
    ------------   -----------------  -----------------  -----------------  -----------------
      Gh(N)          -1.330847580000     0.980326580000     0.426270370000    14.003074004430
      Gh(N)           3.953773330000     0.980326580000     0.426270370000    14.003074004430
      Gh(H)           3.567136740000     4.352185690000    -0.942309730000     1.007825032230
      Gh(H)          -0.944210980000     4.352185690000    -0.942309730000     1.007825032230
      Gh(H)          -0.944210980000    -2.391532530000     1.794850470000     1.007825032230
      Gh(H)           3.567136740000    -2.391532530000     1.794850470000     1.007825032230
      Gh(C)           2.622925760000     2.940979740000    -0.426270370000    12.000000000000
      Gh(C)           0.000000000000     2.940979740000    -0.426270370000    12.000000000000
      Gh(C)           0.000000000000    -0.980326580000     1.278811120000    12.000000000000
      Gh(C)           2.622925760000    -0.980326580000     1.278811120000    12.000000000000
         N          -27.764525590000   -15.602587090000   -17.210071120000    14.003074004430
         N          -22.479904680000   -15.602587090000   -17.210071120000    14.003074004430
         H          -27.377888990000   -18.974446200000   -18.578651220000     1.007825032230
         H          -27.377888990000   -12.230727980000   -15.841491020000     1.007825032230
         H          -22.866541280000   -18.974446200000   -18.578651220000     1.007825032230
         H          -22.866541280000   -12.230727980000   -15.841491020000     1.007825032230
         C          -26.433678020000   -17.563240250000   -18.062611870000    12.000000000000
         C          -26.433678020000   -13.641933930000   -16.357530380000    12.000000000000
         C          -23.810752260000   -17.563240250000   -18.062611870000    12.000000000000
         C          -23.810752260000   -13.641933930000   -16.357530380000    12.000000000000

  Charge       = 0
  Multiplicity = 1
  Basis Set: AUG-CC-PVDZ
    Blend: AUG-CC-PVDZ
  Basis Set: (AUG-CC-PVDZ AUX)
    Blend: AUG-CC-PVDZ-JKFIT

    Orbital Energies [Eh]
    ---------------------

    Doubly Occupied:

       1A    -15.598072     2A    -15.598053     3A    -11.274239
       4A    -11.274194     5A    -11.272975     6A    -11.272969
       7A     -1.313347     8A     -1.224176     9A     -1.076803
      10A     -0.922662    11A     -0.919282    12A     -0.760637
      13A     -0.738402    14A     -0.706214    15A     -0.647687
      16A     -0.580711    17A     -0.574369    18A     -0.497113
      19A     -0.434288    20A     -0.415855    21A     -0.359924

  @DF-RHF Final Energy:  -262.63994484942805

   => Energetics <=

    Nuclear Repulsion Energy =            212.5517311431129315
    One-Electron Energy =                -775.4594096815555986
    Two-Electron Energy =                 300.2677336890146762
    Total Energy =                       -262.6399448494280477

  Dipole Moment: [D]
     X:     0.0000      Y:    -0.0000      Z:    -0.0000     Total:     0.0000

    SAPT Results
  --------------------------------------------------------------------------------------------------------
    Electrostatics                 -0.00289480 [mEh]      -0.00181652 [kcal/mol]      -0.00760030 [kJ/mol]
      Elst10,r                     -0.00289480 [mEh]      -0.00181652 [kcal/mol]      -0.00760030 [kJ/mol]

    Exchange                        0.00000000 [mEh]       0.00000000 [kcal/mol]       0.00000000 [kJ/mol]
      Exch10                        0.00000000 [mEh]       0.00000000 [kcal/mol]       0.00000000 [kJ/mol]
      Exch10(S^2)                   0.00000000 [mEh]       0.00000000 [kcal/mol]       0.00000000 [kJ/mol]

    Induction                       0.00000755 [mEh]       0.00000474 [kcal/mol]       0.00001982 [kJ/mol]
      Ind20,r                      -0.00000581 [mEh]      -0.00000364 [kcal/mol]      -0.00001525 [kJ/mol]
      Exch-Ind20,r                  0.00000000 [mEh]       0.00000000 [kcal/mol]       0.00000000 [kJ/mol]
      delta HF,r (2)                0.00001336 [mEh]       0.00000838 [kcal/mol]       0.00003506 [kJ/mol]

    Dispersion                     -0.00083883 [mEh]      -0.00052637 [kcal/mol]      -0.00220235 [kJ/mol]
      Disp20                       -0.00083883 [mEh]      -0.00052637 [kcal/mol]      -0.00220235 [kJ/mol]
      Exch-Disp20                   0.00000000 [mEh]       0.00000000 [kcal/mol]       0.00000000 [kJ/mol]
      Disp20 (SS)                  -0.00041942 [mEh]      -0.00026319 [kcal/mol]      -0.00110117 [kJ/mol]
      Disp20 (OS)                  -0.00041942 [mEh]      -0.00026319 [kcal/mol]      -0.00110117 [kJ/mol]
      Exch-Disp20 (SS)              0.00000000 [mEh]       0.00000000 [kcal/mol]       0.00000000 [kJ/mol]
      Exch-Disp20 (OS)              0.00000000 [mEh]       0.00000000 [kcal/mol]       0.00000000 [kJ/mol]

  Total HF                         -0.00288725 [mEh]      -0.00181178 [kcal/mol]      -0.00758049 [kJ/mol]
  Total SAPT0                      -0.00372608 [mEh]      -0.00233815 [kcal/mol]      -0.00978283 [kJ/mol]

  Special recipe for scaled SAPT0 (see Manual):
    Electrostatics sSAPT0          -0.00289480 [mEh]      -0.00181652 [kcal/mol]      -0.00760030 [kJ/mol]
    Exchange sSAPT0                 0.00000000 [mEh]       0.00000000 [kcal/mol]       0.00000000 [kJ/mol]
    Induction sSAPT0                0.00000755 [mEh]       0.00000474 [kcal/mol]       0.00001982 [kJ/mol]
    Dispersion sSAPT0              -0.00083883 [mEh]      -0.00052637 [kcal/mol]      -0.00220235 [kJ/mol]
  Total sSAPT0                     -0.00372608 [mEh]      -0.00233815 [kcal/mol]      -0.00978283 [kJ/mol]
  --------------------------------------------------------------------------------------------------------

*** Psi4 exiting successfully. Buy a developer a beer!
