                               Psi4 1.4.1 release

  ==> Input File <==

--------------------------------------------------------------------------
# PSI4 file produced by CrystaLattE

# Generated from:               pyrazine.xyz
# Psithon input for N-mer:      2mer-0+163
# Number of atoms per monomer:  [10, 10]
# Number of replicas:           2
# COM priority:                 3.487764495853e-05
# Minimum COM separations:      16.196
# Separation priority:          7.239949166030e-05
# Minimum monomer separations:  12.697
# Cutoff priority:              3.017500535575e-06
# Nuclear repulsion energy:     482.8902188418132

memory 7 GB

molecule Dimer_0_163 {
  N           -1.33084758       0.98032658       0.42627037
  N            3.95377333       0.98032658       0.42627037
  H            3.56713674       4.35218569      -0.94230973
  H           -0.94421098       4.35218569      -0.94230973
  H           -0.94421098      -2.39153253       1.79485047
  H            3.56713674      -2.39153253       1.79485047
  C            2.62292576       2.94097974      -0.42627037
  C            0.00000000       2.94097974      -0.42627037
  C            0.00000000      -0.98032658       1.27881112
  C            2.62292576      -0.98032658       1.27881112
--
  N           -1.33084758     -21.13022498      21.58988017
  N            3.95377333     -21.13022498      21.58988017
  H            3.56713674     -17.75836587      20.22130007
  H           -0.94421098     -17.75836587      20.22130007
  H           -0.94421098     -24.50208409      22.95846027
  H            3.56713674     -24.50208409      22.95846027
  C            2.62292576     -19.16957182      20.73733942
  C            0.00000000     -19.16957182      20.73733942
  C            0.00000000     -23.09087814      22.44242092
  C            2.62292576     -23.09087814      22.44242092
units = au
no_com
no_reorient
}

set {
  e_convergence 10
  d_convergence 10
  scf_type df
  mp2_type df
  cc_type df
  freeze_core true
}

energy('sapt0/aug-cc-pvdz')

--------------------------------------------------------------------------

  //              Dimer HF             //
    Molecular point group: c1
  Charge       = 0
  Multiplicity = 1
  Basis Set: AUG-CC-PVDZ
    Blend: AUG-CC-PVDZ
  Basis Set: (AUG-CC-PVDZ AUX)
    Blend: AUG-CC-PVDZ-JKFIT
  @DF-RHF Final Energy:  -525.27988018825681
    Total Energy =                       -525.2798801882568114
  //            Monomer A HF           //
    Molecular point group: c1
  Multiplicity = 1
  Basis Set: AUG-CC-PVDZ
    Blend: AUG-CC-PVDZ
  Basis Set: (AUG-CC-PVDZ AUX)
    Blend: AUG-CC-PVDZ-JKFIT
  @DF-RHF Final Energy:  -262.63994485427747
    Total Energy =                       -262.6399448542774735
  //            Monomer B HF           //
    Molecular point group: c1

    Geometry (in Bohr), charge = 0, multiplicity = 1:

       Center              X                  Y                   Z               Mass
    ------------   -----------------  -----------------  -----------------  -----------------
      Gh(N)          -1.330847580000     0.980326580000     0.426270370000    14.003074004430
      Gh(N)           3.953773330000     0.980326580000     0.426270370000    14.003074004430
      Gh(H)           3.567136740000     4.352185690000    -0.942309730000     1.007825032230
      Gh(H)          -0.944210980000     4.352185690000    -0.942309730000     1.007825032230
      Gh(H)          -0.944210980000    -2.391532530000     1.794850470000     1.007825032230
      Gh(H)           3.567136740000    -2.391532530000     1.794850470000     1.007825032230
      Gh(C)           2.622925760000     2.940979740000    -0.426270370000    12.000000000000
      Gh(C)           0.000000000000     2.940979740000    -0.426270370000    12.000000000000
      Gh(C)           0.000000000000    -0.980326580000     1.278811120000    12.000000000000
      Gh(C)           2.622925760000    -0.980326580000     1.278811120000    12.000000000000
         N           -1.330847580000   -21.130224980000    21.589880170000    14.003074004430
         N            3.953773330000   -21.130224980000    21.589880170000    14.003074004430
         H            3.567136740000   -17.758365870000    20.221300070000     1.007825032230
         H           -0.944210980000   -17.758365870000    20.221300070000     1.007825032230
         H           -0.944210980000   -24.502084090000    22.958460270000     1.007825032230
         H            3.567136740000   -24.502084090000    22.958460270000     1.007825032230
         C            2.622925760000   -19.169571820000    20.737339420000    12.000000000000
         C            0.000000000000   -19.169571820000    20.737339420000    12.000000000000
         C            0.000000000000   -23.090878140000    22.442420920000    12.000000000000
         C            2.622925760000   -23.090878140000    22.442420920000    12.000000000000

  Charge       = 0
  Multiplicity = 1
  Basis Set: AUG-CC-PVDZ
    Blend: AUG-CC-PVDZ
  Basis Set: (AUG-CC-PVDZ AUX)
    Blend: AUG-CC-PVDZ-JKFIT

    Orbital Energies [Eh]
    ---------------------

    Doubly Occupied:

       1A    -15.598072     2A    -15.598053     3A    -11.274239
       4A    -11.274194     5A    -11.272975     6A    -11.272969
       7A     -1.313347     8A     -1.224176     9A     -1.076803
      10A     -0.922662    11A     -0.919282    12A     -0.760637
      13A     -0.738402    14A     -0.706214    15A     -0.647687
      16A     -0.580711    17A     -0.574369    18A     -0.497113
      19A     -0.434288    20A     -0.415855    21A     -0.359924

  @DF-RHF Final Energy:  -262.63994484932977

   => Energetics <=

    Nuclear Repulsion Energy =            212.5517310423005597
    One-Electron Energy =                -775.4594095428794844
    Two-Electron Energy =                 300.2677336512491024
    Total Energy =                       -262.6399448493297655

  Dipole Moment: [D]
     X:     0.0000      Y:     0.0000      Z:    -0.0000     Total:     0.0000

    SAPT Results
  --------------------------------------------------------------------------------------------------------
    Electrostatics                  0.00957912 [mEh]       0.00601099 [kcal/mol]       0.02514997 [kJ/mol]
      Elst10,r                      0.00957912 [mEh]       0.00601099 [kcal/mol]       0.02514997 [kJ/mol]

    Exchange                        0.00000000 [mEh]       0.00000000 [kcal/mol]       0.00000000 [kJ/mol]
      Exch10                        0.00000000 [mEh]       0.00000000 [kcal/mol]       0.00000000 [kJ/mol]
      Exch10(S^2)                   0.00000000 [mEh]       0.00000000 [kcal/mol]       0.00000000 [kJ/mol]

    Induction                      -0.00006377 [mEh]      -0.00004002 [kcal/mol]      -0.00016743 [kJ/mol]
      Ind20,r                      -0.00004378 [mEh]      -0.00002747 [kcal/mol]      -0.00011493 [kJ/mol]
      Exch-Ind20,r                  0.00000001 [mEh]       0.00000001 [kcal/mol]       0.00000003 [kJ/mol]
      delta HF,r (2)               -0.00002000 [mEh]      -0.00001255 [kcal/mol]      -0.00005252 [kJ/mol]

    Dispersion                     -0.00249656 [mEh]      -0.00156662 [kcal/mol]      -0.00655472 [kJ/mol]
      Disp20                       -0.00249656 [mEh]      -0.00156662 [kcal/mol]      -0.00655472 [kJ/mol]
      Exch-Disp20                   0.00000000 [mEh]       0.00000000 [kcal/mol]       0.00000000 [kJ/mol]
      Disp20 (SS)                  -0.00124828 [mEh]      -0.00078331 [kcal/mol]      -0.00327736 [kJ/mol]
      Disp20 (OS)                  -0.00124828 [mEh]      -0.00078331 [kcal/mol]      -0.00327736 [kJ/mol]
      Exch-Disp20 (SS)              0.00000000 [mEh]       0.00000000 [kcal/mol]       0.00000000 [kJ/mol]
      Exch-Disp20 (OS)              0.00000000 [mEh]       0.00000000 [kcal/mol]       0.00000000 [kJ/mol]

  Total HF                          0.00951535 [mEh]       0.00597097 [kcal/mol]       0.02498255 [kJ/mol]
  Total SAPT0                       0.00701879 [mEh]       0.00440436 [kcal/mol]       0.01842783 [kJ/mol]

  Special recipe for scaled SAPT0 (see Manual):
    Electrostatics sSAPT0           0.00957912 [mEh]       0.00601099 [kcal/mol]       0.02514997 [kJ/mol]
    Exchange sSAPT0                 0.00000000 [mEh]       0.00000000 [kcal/mol]       0.00000000 [kJ/mol]
    Induction sSAPT0               -0.00006377 [mEh]      -0.00004002 [kcal/mol]      -0.00016743 [kJ/mol]
    Dispersion sSAPT0              -0.00249656 [mEh]      -0.00156662 [kcal/mol]      -0.00655472 [kJ/mol]
  Total sSAPT0                      0.00701879 [mEh]       0.00440436 [kcal/mol]       0.01842783 [kJ/mol]
  --------------------------------------------------------------------------------------------------------

*** Psi4 exiting successfully. Buy a developer a beer!
