                               Psi4 1.4.1 release

  ==> Input File <==

--------------------------------------------------------------------------
# PSI4 file produced by CrystaLattE

# Generated from:               pyrazine.xyz
# Psithon input for N-mer:      2mer-0+53
# Number of atoms per monomer:  [10, 10]
# Number of replicas:           2
# COM priority:                 9.251268182991e-05
# Minimum COM separations:      11.700
# Separation priority:          2.629659635599e-04
# Minimum monomer separations:  8.260
# Cutoff priority:              1.684739351989e-05
# Nuclear repulsion energy:     505.22877423194734

memory 7 GB

molecule Dimer_0_53 {
  N           -1.33084758       0.98032658       0.42627037
  N            3.95377333       0.98032658       0.42627037
  H            3.56713674       4.35218569      -0.94230973
  H           -0.94421098       4.35218569      -0.94230973
  H           -0.94421098      -2.39153253       1.79485047
  H            3.56713674      -2.39153253       1.79485047
  C            2.62292576       2.94097974      -0.42627037
  C            0.00000000       2.94097974      -0.42627037
  C            0.00000000      -0.98032658       1.27881112
  C            2.62292576      -0.98032658       1.27881112
--
  N           -1.33084758     -21.13022498       0.42627037
  N            3.95377333     -21.13022498       0.42627037
  H            3.56713674     -17.75836587      -0.94230973
  H           -0.94421098     -17.75836587      -0.94230973
  H           -0.94421098     -24.50208409       1.79485047
  H            3.56713674     -24.50208409       1.79485047
  C            2.62292576     -19.16957182      -0.42627037
  C            0.00000000     -19.16957182      -0.42627037
  C            0.00000000     -23.09087814       1.27881112
  C            2.62292576     -23.09087814       1.27881112
units = au
no_com
no_reorient
}

set {
  e_convergence 10
  d_convergence 10
  scf_type df
  mp2_type df
  cc_type df
  freeze_core true
}

energy('sapt0/aug-cc-pvdz')

--------------------------------------------------------------------------

  //              Dimer HF             //
    Molecular point group: c1
  Charge       = 0
  Multiplicity = 1
  Basis Set: AUG-CC-PVDZ
    Blend: AUG-CC-PVDZ
  Basis Set: (AUG-CC-PVDZ AUX)
    Blend: AUG-CC-PVDZ-JKFIT
  @DF-RHF Final Energy:  -525.27985722140500
    Total Energy =                       -525.2798572214049955
  //            Monomer A HF           //
    Molecular point group: c1
  Multiplicity = 1
  Basis Set: AUG-CC-PVDZ
    Blend: AUG-CC-PVDZ
  Basis Set: (AUG-CC-PVDZ AUX)
    Blend: AUG-CC-PVDZ-JKFIT
  @DF-RHF Final Energy:  -262.63995049259302
    Total Energy =                       -262.6399504925930160
  //            Monomer B HF           //
    Molecular point group: c1

    Geometry (in Bohr), charge = 0, multiplicity = 1:

       Center              X                  Y                   Z               Mass
    ------------   -----------------  -----------------  -----------------  -----------------
      Gh(N)          -1.330847580000     0.980326580000     0.426270370000    14.003074004430
      Gh(N)           3.953773330000     0.980326580000     0.426270370000    14.003074004430
      Gh(H)           3.567136740000     4.352185690000    -0.942309730000     1.007825032230
      Gh(H)          -0.944210980000     4.352185690000    -0.942309730000     1.007825032230
      Gh(H)          -0.944210980000    -2.391532530000     1.794850470000     1.007825032230
      Gh(H)           3.567136740000    -2.391532530000     1.794850470000     1.007825032230
      Gh(C)           2.622925760000     2.940979740000    -0.426270370000    12.000000000000
      Gh(C)           0.000000000000     2.940979740000    -0.426270370000    12.000000000000
      Gh(C)           0.000000000000    -0.980326580000     1.278811120000    12.000000000000
      Gh(C)           2.622925760000    -0.980326580000     1.278811120000    12.000000000000
         N           -1.330847580000   -21.130224980000     0.426270370000    14.003074004430
         N            3.953773330000   -21.130224980000     0.426270370000    14.003074004430
         H            3.567136740000   -17.758365870000    -0.942309730000     1.007825032230
         H           -0.944210980000   -17.758365870000    -0.942309730000     1.007825032230
         H           -0.944210980000   -24.502084090000     1.794850470000     1.007825032230
         H            3.567136740000   -24.502084090000     1.794850470000     1.007825032230
         C            2.622925760000   -19.169571820000    -0.426270370000    12.000000000000
         C            0.000000000000   -19.169571820000    -0.426270370000    12.000000000000
         C            0.000000000000   -23.090878140000     1.278811120000    12.000000000000
         C            2.622925760000   -23.090878140000     1.278811120000    12.000000000000

  Charge       = 0
  Multiplicity = 1
  Basis Set: AUG-CC-PVDZ
    Blend: AUG-CC-PVDZ
  Basis Set: (AUG-CC-PVDZ AUX)
    Blend: AUG-CC-PVDZ-JKFIT

    Orbital Energies [Eh]
    ---------------------

    Doubly Occupied:

       1A    -15.598071     2A    -15.598053     3A    -11.274238
       4A    -11.274193     5A    -11.272974     6A    -11.272968
       7A     -1.313347     8A     -1.224176     9A     -1.076803
      10A     -0.922663    11A     -0.919283    12A     -0.760638
      13A     -0.738402    14A     -0.706215    15A     -0.647688
      16A     -0.580711    17A     -0.574370    18A     -0.497113
      19A     -0.434288    20A     -0.415855    21A     -0.359924

  @DF-RHF Final Energy:  -262.63995049609923

   => Energetics <=

    Nuclear Repulsion Energy =            212.5517311104853206
    One-Electron Energy =                -775.4594211362056058
    Two-Electron Energy =                 300.2677395296210534
    Total Energy =                       -262.6399504960992317

  Dipole Moment: [D]
     X:     0.0000      Y:     0.0000      Z:     0.0000     Total:     0.0000

    SAPT Results
  --------------------------------------------------------------------------------------------------------
    Electrostatics                  0.04442511 [mEh]       0.02787718 [kcal/mol]       0.11663811 [kJ/mol]
      Elst10,r                      0.04442511 [mEh]       0.02787718 [kcal/mol]       0.11663811 [kJ/mol]

    Exchange                        0.00000275 [mEh]       0.00000173 [kcal/mol]       0.00000723 [kJ/mol]
      Exch10                        0.00000275 [mEh]       0.00000173 [kcal/mol]       0.00000723 [kJ/mol]
      Exch10(S^2)                   0.00000275 [mEh]       0.00000173 [kcal/mol]       0.00000723 [kJ/mol]

    Induction                      -0.00066058 [mEh]      -0.00041452 [kcal/mol]      -0.00173434 [kJ/mol]
      Ind20,r                      -0.00059717 [mEh]      -0.00037473 [kcal/mol]      -0.00156787 [kJ/mol]
      Exch-Ind20,r                  0.00000588 [mEh]       0.00000369 [kcal/mol]       0.00001544 [kJ/mol]
      delta HF,r (2)               -0.00006929 [mEh]      -0.00004348 [kcal/mol]      -0.00018192 [kJ/mol]

    Dispersion                     -0.01896092 [mEh]      -0.01189816 [kcal/mol]      -0.04978189 [kJ/mol]
      Disp20                       -0.01896144 [mEh]      -0.01189848 [kcal/mol]      -0.04978325 [kJ/mol]
      Exch-Disp20                   0.00000052 [mEh]       0.00000033 [kcal/mol]       0.00000136 [kJ/mol]
      Disp20 (SS)                  -0.00948072 [mEh]      -0.00594924 [kcal/mol]      -0.02489162 [kJ/mol]
      Disp20 (OS)                  -0.00948072 [mEh]      -0.00594924 [kcal/mol]      -0.02489162 [kJ/mol]
      Exch-Disp20 (SS)              0.00000043 [mEh]       0.00000027 [kcal/mol]       0.00000112 [kJ/mol]
      Exch-Disp20 (OS)              0.00000009 [mEh]       0.00000006 [kcal/mol]       0.00000024 [kJ/mol]

  Total HF                          0.04376729 [mEh]       0.02746439 [kcal/mol]       0.11491100 [kJ/mol]
  Total SAPT0                       0.02480637 [mEh]       0.01556623 [kcal/mol]       0.06512911 [kJ/mol]

  Special recipe for scaled SAPT0 (see Manual):
    Electrostatics sSAPT0           0.04442511 [mEh]       0.02787718 [kcal/mol]       0.11663811 [kJ/mol]
    Exchange sSAPT0                 0.00000275 [mEh]       0.00000173 [kcal/mol]       0.00000723 [kJ/mol]
    Induction sSAPT0               -0.00066058 [mEh]      -0.00041452 [kcal/mol]      -0.00173434 [kJ/mol]
    Dispersion sSAPT0              -0.01896092 [mEh]      -0.01189816 [kcal/mol]      -0.04978189 [kJ/mol]
  Total sSAPT0                      0.02480637 [mEh]       0.01556623 [kcal/mol]       0.06512911 [kJ/mol]
  --------------------------------------------------------------------------------------------------------

*** Psi4 exiting successfully. Buy a developer a beer!
