                               Psi4 1.4.1 release

  ==> Input File <==

--------------------------------------------------------------------------
# PSI4 file produced by CrystaLattE

# Generated from:               pyrazine.xyz
# Psithon input for N-mer:      2mer-0+15
# Number of atoms per monomer:  [10, 10]
# Number of replicas:           8
# COM priority:                 3.061057082251e-04
# Minimum COM separations:      7.852
# Separation priority:          9.314990764041e-04
# Minimum monomer separations:  5.418
# Cutoff priority:              9.097245290691e-05
# Nuclear repulsion energy:     543.1618853393572

memory 7 GB

molecule Dimer_0_15 {
  N           -1.33084758       0.98032658       0.42627037
  N            3.95377333       0.98032658       0.42627037
  H            3.56713674       4.35218569      -0.94230973
  H           -0.94421098       4.35218569      -0.94230973
  H           -0.94421098      -2.39153253       1.79485047
  H            3.56713674      -2.39153253       1.79485047
  C            2.62292576       2.94097974      -0.42627037
  C            0.00000000       2.94097974      -0.42627037
  C            0.00000000      -0.98032658       1.27881112
  C            2.62292576      -0.98032658       1.27881112
--
  N          -10.14207358      -4.54731131     -10.15553452
  N           -4.85745267      -4.54731131     -10.15553452
  H           -9.75543698      -7.91917042     -11.52411462
  H           -9.75543698      -1.17545220      -8.78695442
  H           -5.24408927      -7.91917042     -11.52411462
  H           -5.24408927      -1.17545220      -8.78695442
  C           -8.81122601      -6.50796447     -11.00807527
  C           -8.81122601      -2.58665815      -9.30299378
  C           -6.18830025      -6.50796447     -11.00807527
  C           -6.18830025      -2.58665815      -9.30299378
units = au
no_com
no_reorient
}

set {
  e_convergence 10
  d_convergence 10
  scf_type df
  mp2_type df
  cc_type df
  freeze_core true
}

energy('sapt0/aug-cc-pvdz')

--------------------------------------------------------------------------

  //              Dimer HF             //
    Molecular point group: c1
  Charge       = 0
  Multiplicity = 1
  Basis Set: AUG-CC-PVDZ
    Blend: AUG-CC-PVDZ
  Basis Set: (AUG-CC-PVDZ AUX)
    Blend: AUG-CC-PVDZ-JKFIT
  @DF-RHF Final Energy:  -525.28007873310116
    Total Energy =                       -525.2800787331011634
  //            Monomer A HF           //
    Molecular point group: c1
  Multiplicity = 1
  Basis Set: AUG-CC-PVDZ
    Blend: AUG-CC-PVDZ
  Basis Set: (AUG-CC-PVDZ AUX)
    Blend: AUG-CC-PVDZ-JKFIT
  @DF-RHF Final Energy:  -262.63999900753026
    Total Energy =                       -262.6399990075302640
  //            Monomer B HF           //
    Molecular point group: c1

    Geometry (in Bohr), charge = 0, multiplicity = 1:

       Center              X                  Y                   Z               Mass
    ------------   -----------------  -----------------  -----------------  -----------------
      Gh(N)          -1.330847580000     0.980326580000     0.426270370000    14.003074004430
      Gh(N)           3.953773330000     0.980326580000     0.426270370000    14.003074004430
      Gh(H)           3.567136740000     4.352185690000    -0.942309730000     1.007825032230
      Gh(H)          -0.944210980000     4.352185690000    -0.942309730000     1.007825032230
      Gh(H)          -0.944210980000    -2.391532530000     1.794850470000     1.007825032230
      Gh(H)           3.567136740000    -2.391532530000     1.794850470000     1.007825032230
      Gh(C)           2.622925760000     2.940979740000    -0.426270370000    12.000000000000
      Gh(C)           0.000000000000     2.940979740000    -0.426270370000    12.000000000000
      Gh(C)           0.000000000000    -0.980326580000     1.278811120000    12.000000000000
      Gh(C)           2.622925760000    -0.980326580000     1.278811120000    12.000000000000
         N          -10.142073580000    -4.547311310000   -10.155534520000    14.003074004430
         N           -4.857452670000    -4.547311310000   -10.155534520000    14.003074004430
         H           -9.755436980000    -7.919170420000   -11.524114620000     1.007825032230
         H           -9.755436980000    -1.175452200000    -8.786954420000     1.007825032230
         H           -5.244089270000    -7.919170420000   -11.524114620000     1.007825032230
         H           -5.244089270000    -1.175452200000    -8.786954420000     1.007825032230
         C           -8.811226010000    -6.507964470000   -11.008075270000    12.000000000000
         C           -8.811226010000    -2.586658150000    -9.302993780000    12.000000000000
         C           -6.188300250000    -6.507964470000   -11.008075270000    12.000000000000
         C           -6.188300250000    -2.586658150000    -9.302993780000    12.000000000000

  Charge       = 0
  Multiplicity = 1
  Basis Set: AUG-CC-PVDZ
    Blend: AUG-CC-PVDZ
  Basis Set: (AUG-CC-PVDZ AUX)
    Blend: AUG-CC-PVDZ-JKFIT

    Orbital Energies [Eh]
    ---------------------

    Doubly Occupied:

       1A    -15.598074     2A    -15.598055     3A    -11.274234
       4A    -11.274183     5A    -11.272976     6A    -11.272952
       7A     -1.313349     8A     -1.224178     9A     -1.076805
      10A     -0.922664    11A     -0.919285    12A     -0.760640
      13A     -0.738405    14A     -0.706217    15A     -0.647692
      16A     -0.580715    17A     -0.574372    18A     -0.497114
      19A     -0.434292    20A     -0.415857    21A     -0.359926

  @DF-RHF Final Energy:  -262.63999041322268

   => Energetics <=

    Nuclear Repulsion Energy =            212.5517311431129599
    One-Electron Energy =                -775.4594707023993578
    Two-Electron Energy =                 300.2677491460636929
    Total Energy =                       -262.6399904132226766

  Dipole Moment: [D]
     X:    -0.0001      Y:     0.0002      Z:     0.0002     Total:     0.0003

    SAPT Results
  --------------------------------------------------------------------------------------------------------
    Electrostatics                 -0.08383388 [mEh]      -0.05260656 [kcal/mol]      -0.22010583 [kJ/mol]
      Elst10,r                     -0.08383388 [mEh]      -0.05260656 [kcal/mol]      -0.22010583 [kJ/mol]

    Exchange                        0.00044417 [mEh]       0.00027872 [kcal/mol]       0.00116618 [kJ/mol]
      Exch10                        0.00044417 [mEh]       0.00027872 [kcal/mol]       0.00116618 [kJ/mol]
      Exch10(S^2)                   0.00044417 [mEh]       0.00027872 [kcal/mol]       0.00116618 [kJ/mol]

    Induction                      -0.00592264 [mEh]      -0.00371651 [kcal/mol]      -0.01554988 [kJ/mol]
      Ind20,r                      -0.00589590 [mEh]      -0.00369973 [kcal/mol]      -0.01547969 [kJ/mol]
      Exch-Ind20,r                  0.00013502 [mEh]       0.00008473 [kcal/mol]       0.00035449 [kJ/mol]
      delta HF,r (2)               -0.00016175 [mEh]      -0.00010150 [kcal/mol]      -0.00042469 [kJ/mol]

    Dispersion                     -0.19676374 [mEh]      -0.12347111 [kcal/mol]      -0.51660312 [kJ/mol]
      Disp20                       -0.19688873 [mEh]      -0.12354954 [kcal/mol]      -0.51693128 [kJ/mol]
      Exch-Disp20                   0.00012499 [mEh]       0.00007843 [kcal/mol]       0.00032816 [kJ/mol]
      Disp20 (SS)                  -0.09844436 [mEh]      -0.06177477 [kcal/mol]      -0.25846564 [kJ/mol]
      Disp20 (OS)                  -0.09844436 [mEh]      -0.06177477 [kcal/mol]      -0.25846564 [kJ/mol]
      Exch-Disp20 (SS)              0.00009371 [mEh]       0.00005881 [kcal/mol]       0.00024604 [kJ/mol]
      Exch-Disp20 (OS)              0.00003128 [mEh]       0.00001963 [kcal/mol]       0.00008212 [kJ/mol]

  Total HF                         -0.08931235 [mEh]      -0.05604434 [kcal/mol]      -0.23448954 [kJ/mol]
  Total SAPT0                      -0.28607608 [mEh]      -0.17951545 [kcal/mol]      -0.75109266 [kJ/mol]

  Special recipe for scaled SAPT0 (see Manual):
    Electrostatics sSAPT0          -0.08383388 [mEh]      -0.05260656 [kcal/mol]      -0.22010583 [kJ/mol]
    Exchange sSAPT0                 0.00044417 [mEh]       0.00027872 [kcal/mol]       0.00116618 [kJ/mol]
    Induction sSAPT0               -0.00592264 [mEh]      -0.00371651 [kcal/mol]      -0.01554988 [kJ/mol]
    Dispersion sSAPT0              -0.19676374 [mEh]      -0.12347111 [kcal/mol]      -0.51660312 [kJ/mol]
  Total sSAPT0                     -0.28607608 [mEh]      -0.17951545 [kcal/mol]      -0.75109266 [kJ/mol]
  --------------------------------------------------------------------------------------------------------

*** Psi4 exiting successfully. Buy a developer a beer!
