                               Psi4 1.4.1 release

  ==> Input File <==

--------------------------------------------------------------------------
# PSI4 file produced by CrystaLattE

# Generated from:               pyrazine.xyz
# Psithon input for N-mer:      2mer-0+39
# Number of atoms per monomer:  [10, 10]
# Number of replicas:           8
# COM priority:                 9.985589906580e-05
# Minimum COM separations:      11.406
# Separation priority:          2.918618490411e-04
# Minimum monomer separations:  7.978
# Cutoff priority:              1.935989983710e-05
# Nuclear repulsion energy:     507.01862666595594

memory 7 GB

molecule Dimer_0_39 {
  N           -1.33084758       0.98032658       0.42627037
  N            3.95377333       0.98032658       0.42627037
  H            3.56713674       4.35218569      -0.94230973
  H           -0.94421098       4.35218569      -0.94230973
  H           -0.94421098      -2.39153253       1.79485047
  H            3.56713674      -2.39153253       1.79485047
  C            2.62292576       2.94097974      -0.42627037
  C            0.00000000       2.94097974      -0.42627037
  C            0.00000000      -0.98032658       1.27881112
  C            2.62292576      -0.98032658       1.27881112
--
  N          -10.14207358     -15.60258709     -10.15553452
  N           -4.85745267     -15.60258709     -10.15553452
  H           -9.75543698     -18.97444620     -11.52411462
  H           -9.75543698     -12.23072798      -8.78695442
  H           -5.24408927     -18.97444620     -11.52411462
  H           -5.24408927     -12.23072798      -8.78695442
  C           -8.81122601     -17.56324025     -11.00807527
  C           -8.81122601     -13.64193393      -9.30299378
  C           -6.18830025     -17.56324025     -11.00807527
  C           -6.18830025     -13.64193393      -9.30299378
units = au
no_com
no_reorient
}

set {
  e_convergence 10
  d_convergence 10
  scf_type df
  mp2_type df
  cc_type df
  freeze_core true
}

energy('sapt0/aug-cc-pvdz')

--------------------------------------------------------------------------

  //              Dimer HF             //
    Molecular point group: c1
  Charge       = 0
  Multiplicity = 1
  Basis Set: AUG-CC-PVDZ
    Blend: AUG-CC-PVDZ
  Basis Set: (AUG-CC-PVDZ AUX)
    Blend: AUG-CC-PVDZ-JKFIT
  @DF-RHF Final Energy:  -525.27992659720667
    Total Energy =                       -525.2799265972066678
  //            Monomer A HF           //
    Molecular point group: c1
  Multiplicity = 1
  Basis Set: AUG-CC-PVDZ
    Blend: AUG-CC-PVDZ
  Basis Set: (AUG-CC-PVDZ AUX)
    Blend: AUG-CC-PVDZ-JKFIT
  @DF-RHF Final Energy:  -262.63995047730612
    Total Energy =                       -262.6399504773061153
  //            Monomer B HF           //
    Molecular point group: c1

    Geometry (in Bohr), charge = 0, multiplicity = 1:

       Center              X                  Y                   Z               Mass
    ------------   -----------------  -----------------  -----------------  -----------------
      Gh(N)          -1.330847580000     0.980326580000     0.426270370000    14.003074004430
      Gh(N)           3.953773330000     0.980326580000     0.426270370000    14.003074004430
      Gh(H)           3.567136740000     4.352185690000    -0.942309730000     1.007825032230
      Gh(H)          -0.944210980000     4.352185690000    -0.942309730000     1.007825032230
      Gh(H)          -0.944210980000    -2.391532530000     1.794850470000     1.007825032230
      Gh(H)           3.567136740000    -2.391532530000     1.794850470000     1.007825032230
      Gh(C)           2.622925760000     2.940979740000    -0.426270370000    12.000000000000
      Gh(C)           0.000000000000     2.940979740000    -0.426270370000    12.000000000000
      Gh(C)           0.000000000000    -0.980326580000     1.278811120000    12.000000000000
      Gh(C)           2.622925760000    -0.980326580000     1.278811120000    12.000000000000
         N          -10.142073580000   -15.602587090000   -10.155534520000    14.003074004430
         N           -4.857452670000   -15.602587090000   -10.155534520000    14.003074004430
         H           -9.755436980000   -18.974446200000   -11.524114620000     1.007825032230
         H           -9.755436980000   -12.230727980000    -8.786954420000     1.007825032230
         H           -5.244089270000   -18.974446200000   -11.524114620000     1.007825032230
         H           -5.244089270000   -12.230727980000    -8.786954420000     1.007825032230
         C           -8.811226010000   -17.563240250000   -11.008075270000    12.000000000000
         C           -8.811226010000   -13.641933930000    -9.302993780000    12.000000000000
         C           -6.188300250000   -17.563240250000   -11.008075270000    12.000000000000
         C           -6.188300250000   -13.641933930000    -9.302993780000    12.000000000000

  Charge       = 0
  Multiplicity = 1
  Basis Set: AUG-CC-PVDZ
    Blend: AUG-CC-PVDZ
  Basis Set: (AUG-CC-PVDZ AUX)
    Blend: AUG-CC-PVDZ-JKFIT

    Orbital Energies [Eh]
    ---------------------

    Doubly Occupied:

       1A    -15.598071     2A    -15.598052     3A    -11.274237
       4A    -11.274192     5A    -11.272974     6A    -11.272967
       7A     -1.313347     8A     -1.224175     9A     -1.076803
      10A     -0.922662    11A     -0.919282    12A     -0.760637
      13A     -0.738401    14A     -0.706214    15A     -0.647688
      16A     -0.580711    17A     -0.574369    18A     -0.497112
      19A     -0.434288    20A     -0.415855    21A     -0.359924

  @DF-RHF Final Energy:  -262.63995035860961

   => Energetics <=

    Nuclear Repulsion Energy =            212.5517311431129599
    One-Electron Energy =                -775.4594331497452231
    Two-Electron Energy =                 300.2677516480226245
    Total Energy =                       -262.6399503586096102

  Dipole Moment: [D]
     X:    -0.0001      Y:     0.0000      Z:     0.0001     Total:     0.0001

    SAPT Results
  --------------------------------------------------------------------------------------------------------
    Electrostatics                 -0.02532264 [mEh]      -0.01589019 [kcal/mol]      -0.06648457 [kJ/mol]
      Elst10,r                     -0.02532264 [mEh]      -0.01589019 [kcal/mol]      -0.06648457 [kJ/mol]

    Exchange                        0.00000189 [mEh]       0.00000119 [kcal/mol]       0.00000497 [kJ/mol]
      Exch10                        0.00000189 [mEh]       0.00000119 [kcal/mol]       0.00000497 [kJ/mol]
      Exch10(S^2)                   0.00000189 [mEh]       0.00000119 [kcal/mol]       0.00000497 [kJ/mol]

    Induction                      -0.00044055 [mEh]      -0.00027645 [kcal/mol]      -0.00115666 [kJ/mol]
      Ind20,r                      -0.00040708 [mEh]      -0.00025545 [kcal/mol]      -0.00106879 [kJ/mol]
      Exch-Ind20,r                  0.00000588 [mEh]       0.00000369 [kcal/mol]       0.00001543 [kJ/mol]
      delta HF,r (2)               -0.00003934 [mEh]      -0.00002469 [kcal/mol]      -0.00010329 [kJ/mol]

    Dispersion                     -0.02003106 [mEh]      -0.01256968 [kcal/mol]      -0.05259155 [kJ/mol]
      Disp20                       -0.02003167 [mEh]      -0.01257006 [kcal/mol]      -0.05259315 [kJ/mol]
      Exch-Disp20                   0.00000061 [mEh]       0.00000038 [kcal/mol]       0.00000160 [kJ/mol]
      Disp20 (SS)                  -0.01001584 [mEh]      -0.00628503 [kcal/mol]      -0.02629658 [kJ/mol]
      Disp20 (OS)                  -0.01001584 [mEh]      -0.00628503 [kcal/mol]      -0.02629658 [kJ/mol]
      Exch-Disp20 (SS)              0.00000052 [mEh]       0.00000032 [kcal/mol]       0.00000135 [kJ/mol]
      Exch-Disp20 (OS)              0.00000010 [mEh]       0.00000006 [kcal/mol]       0.00000025 [kJ/mol]

  Total HF                         -0.02576129 [mEh]      -0.01616545 [kcal/mol]      -0.06763626 [kJ/mol]
  Total SAPT0                      -0.04579235 [mEh]      -0.02873514 [kcal/mol]      -0.12022781 [kJ/mol]

  Special recipe for scaled SAPT0 (see Manual):
    Electrostatics sSAPT0          -0.02532264 [mEh]      -0.01589019 [kcal/mol]      -0.06648457 [kJ/mol]
    Exchange sSAPT0                 0.00000189 [mEh]       0.00000119 [kcal/mol]       0.00000497 [kJ/mol]
    Induction sSAPT0               -0.00044055 [mEh]      -0.00027645 [kcal/mol]      -0.00115666 [kJ/mol]
    Dispersion sSAPT0              -0.02003106 [mEh]      -0.01256968 [kcal/mol]      -0.05259155 [kJ/mol]
  Total sSAPT0                     -0.04579235 [mEh]      -0.02873514 [kcal/mol]      -0.12022781 [kJ/mol]
  --------------------------------------------------------------------------------------------------------

*** Psi4 exiting successfully. Buy a developer a beer!
