                               Psi4 1.4.1 release

  ==> Input File <==

--------------------------------------------------------------------------
# PSI4 file produced by CrystaLattE

# Generated from:               pyrazine.xyz
# Psithon input for N-mer:      2mer-0+16
# Number of atoms per monomer:  [10, 10]
# Number of replicas:           2
# COM priority:                 4.433654392739e-04
# Minimum COM separations:      6.940
# Separation priority:          8.165454731025e-04
# Minimum monomer separations:  5.662
# Cutoff priority:              7.632037587484e-05
# Nuclear repulsion energy:     556.427511553816

memory 7 GB

molecule Dimer_0_16 {
  N           -1.33084758       0.98032658       0.42627037
  N            3.95377333       0.98032658       0.42627037
  H            3.56713674       4.35218569      -0.94230973
  H           -0.94421098       4.35218569      -0.94230973
  H           -0.94421098      -2.39153253       1.79485047
  H            3.56713674      -2.39153253       1.79485047
  C            2.62292576       2.94097974      -0.42627037
  C            0.00000000       2.94097974      -0.42627037
  C            0.00000000      -0.98032658       1.27881112
  C            2.62292576      -0.98032658       1.27881112
--
  N           -1.33084758     -10.07494920      -6.62826622
  N            3.95377333     -10.07494920      -6.62826622
  H            3.56713674      -6.70309009      -7.99684633
  H           -0.94421098      -6.70309009      -7.99684633
  H           -0.94421098     -13.44680831      -5.25968612
  H            3.56713674     -13.44680831      -5.25968612
  C            2.62292576      -8.11429604      -7.48080697
  C            0.00000000      -8.11429604      -7.48080697
  C            0.00000000     -12.03560236      -5.77572548
  C            2.62292576     -12.03560236      -5.77572548
units = au
no_com
no_reorient
}

set {
  e_convergence 10
  d_convergence 10
  scf_type df
  mp2_type df
  cc_type df
  freeze_core true
}

energy('sapt0/aug-cc-pvdz')

--------------------------------------------------------------------------

  //              Dimer HF             //
    Molecular point group: c1
  Charge       = 0
  Multiplicity = 1
  Basis Set: AUG-CC-PVDZ
    Blend: AUG-CC-PVDZ
  Basis Set: (AUG-CC-PVDZ AUX)
    Blend: AUG-CC-PVDZ-JKFIT
  @DF-RHF Final Energy:  -525.28019315146423
    Total Energy =                       -525.2801931514642320
  //            Monomer A HF           //
    Molecular point group: c1
  Multiplicity = 1
  Basis Set: AUG-CC-PVDZ
    Blend: AUG-CC-PVDZ
  Basis Set: (AUG-CC-PVDZ AUX)
    Blend: AUG-CC-PVDZ-JKFIT
  @DF-RHF Final Energy:  -262.64004041982452
    Total Energy =                       -262.6400404198245155
  //            Monomer B HF           //
    Molecular point group: c1

    Geometry (in Bohr), charge = 0, multiplicity = 1:

       Center              X                  Y                   Z               Mass
    ------------   -----------------  -----------------  -----------------  -----------------
      Gh(N)          -1.330847580000     0.980326580000     0.426270370000    14.003074004430
      Gh(N)           3.953773330000     0.980326580000     0.426270370000    14.003074004430
      Gh(H)           3.567136740000     4.352185690000    -0.942309730000     1.007825032230
      Gh(H)          -0.944210980000     4.352185690000    -0.942309730000     1.007825032230
      Gh(H)          -0.944210980000    -2.391532530000     1.794850470000     1.007825032230
      Gh(H)           3.567136740000    -2.391532530000     1.794850470000     1.007825032230
      Gh(C)           2.622925760000     2.940979740000    -0.426270370000    12.000000000000
      Gh(C)           0.000000000000     2.940979740000    -0.426270370000    12.000000000000
      Gh(C)           0.000000000000    -0.980326580000     1.278811120000    12.000000000000
      Gh(C)           2.622925760000    -0.980326580000     1.278811120000    12.000000000000
         N           -1.330847580000   -10.074949200000    -6.628266220000    14.003074004430
         N            3.953773330000   -10.074949200000    -6.628266220000    14.003074004430
         H            3.567136740000    -6.703090090000    -7.996846330000     1.007825032230
         H           -0.944210980000    -6.703090090000    -7.996846330000     1.007825032230
         H           -0.944210980000   -13.446808310000    -5.259686120000     1.007825032230
         H            3.567136740000   -13.446808310000    -5.259686120000     1.007825032230
         C            2.622925760000    -8.114296040000    -7.480806970000    12.000000000000
         C            0.000000000000    -8.114296040000    -7.480806970000    12.000000000000
         C            0.000000000000   -12.035602360000    -5.775725480000    12.000000000000
         C            2.622925760000   -12.035602360000    -5.775725480000    12.000000000000

  Charge       = 0
  Multiplicity = 1
  Basis Set: AUG-CC-PVDZ
    Blend: AUG-CC-PVDZ
  Basis Set: (AUG-CC-PVDZ AUX)
    Blend: AUG-CC-PVDZ-JKFIT

    Orbital Energies [Eh]
    ---------------------

    Doubly Occupied:

       1A    -15.598066     2A    -15.598047     3A    -11.274223
       4A    -11.274167     5A    -11.272967     6A    -11.272934
       7A     -1.313342     8A     -1.224172     9A     -1.076801
      10A     -0.922658    11A     -0.919279    12A     -0.760632
      13A     -0.738398    14A     -0.706213    15A     -0.647687
      16A     -0.580715    17A     -0.574368    18A     -0.497110
      19A     -0.434287    20A     -0.415853    21A     -0.359926

  @DF-RHF Final Energy:  -262.64004042342168

   => Energetics <=

    Nuclear Repulsion Energy =            212.5517310911745881
    One-Electron Energy =                -775.4598532952375081
    Two-Electron Energy =                 300.2680817806412392
    Total Energy =                       -262.6400404234216808

  Dipole Moment: [D]
     X:     0.0000      Y:    -0.0000      Z:    -0.0009     Total:     0.0009

    SAPT Results
  --------------------------------------------------------------------------------------------------------
    Electrostatics                 -0.10961188 [mEh]      -0.06878249 [kcal/mol]      -0.28778594 [kJ/mol]
      Elst10,r                     -0.10961188 [mEh]      -0.06878249 [kcal/mol]      -0.28778594 [kJ/mol]

    Exchange                        0.00210547 [mEh]       0.00132120 [kcal/mol]       0.00552791 [kJ/mol]
      Exch10                        0.00210547 [mEh]       0.00132120 [kcal/mol]       0.00552791 [kJ/mol]
      Exch10(S^2)                   0.00210546 [mEh]       0.00132120 [kcal/mol]       0.00552788 [kJ/mol]

    Induction                      -0.00480181 [mEh]      -0.00301318 [kcal/mol]      -0.01260715 [kJ/mol]
      Ind20,r                      -0.00592958 [mEh]      -0.00372087 [kcal/mol]      -0.01556811 [kJ/mol]
      Exch-Ind20,r                  0.00098562 [mEh]       0.00061849 [kcal/mol]       0.00258776 [kJ/mol]
      delta HF,r (2)                0.00014214 [mEh]       0.00008920 [kcal/mol]       0.00037320 [kJ/mol]

    Dispersion                     -0.32861446 [mEh]      -0.20620869 [kcal/mol]      -0.86277715 [kJ/mol]
      Disp20                       -0.32926684 [mEh]      -0.20661806 [kcal/mol]      -0.86448997 [kJ/mol]
      Exch-Disp20                   0.00065238 [mEh]       0.00040937 [kcal/mol]       0.00171282 [kJ/mol]
      Disp20 (SS)                  -0.16463342 [mEh]      -0.10330903 [kcal/mol]      -0.43224499 [kJ/mol]
      Disp20 (OS)                  -0.16463342 [mEh]      -0.10330903 [kcal/mol]      -0.43224499 [kJ/mol]
      Exch-Disp20 (SS)              0.00047705 [mEh]       0.00029935 [kcal/mol]       0.00125250 [kJ/mol]
      Exch-Disp20 (OS)              0.00017533 [mEh]       0.00011002 [kcal/mol]       0.00046032 [kJ/mol]

  Total HF                         -0.11230822 [mEh]      -0.07047447 [kcal/mol]      -0.29486519 [kJ/mol]
  Total SAPT0                      -0.44092268 [mEh]      -0.27668316 [kcal/mol]      -1.15764234 [kJ/mol]

  Special recipe for scaled SAPT0 (see Manual):
    Electrostatics sSAPT0          -0.10961188 [mEh]      -0.06878249 [kcal/mol]      -0.28778594 [kJ/mol]
    Exchange sSAPT0                 0.00210547 [mEh]       0.00132120 [kcal/mol]       0.00552791 [kJ/mol]
    Induction sSAPT0               -0.00480181 [mEh]      -0.00301318 [kcal/mol]      -0.01260715 [kJ/mol]
    Dispersion sSAPT0              -0.32861446 [mEh]      -0.20620869 [kcal/mol]      -0.86277715 [kJ/mol]
  Total sSAPT0                     -0.44092268 [mEh]      -0.27668316 [kcal/mol]      -1.15764234 [kJ/mol]
  --------------------------------------------------------------------------------------------------------

*** Psi4 exiting successfully. Buy a developer a beer!
