                               Psi4 1.4.1 release

  ==> Input File <==

--------------------------------------------------------------------------
# PSI4 file produced by CrystaLattE

# Generated from:               pyrazine.xyz
# Psithon input for N-mer:      2mer-0+72
# Number of atoms per monomer:  [10, 10]
# Number of replicas:           2
# COM priority:                 1.054947295400e-04
# Minimum COM separations:      11.199
# Separation priority:          1.323698184546e-04
# Minimum monomer separations:  10.383
# Cutoff priority:              6.746087413026e-06
# Nuclear repulsion energy:     507.37729164164057

memory 7 GB

molecule Dimer_0_72 {
  N           -1.33084758       0.98032658       0.42627037
  N            3.95377333       0.98032658       0.42627037
  H            3.56713674       4.35218569      -0.94230973
  H           -0.94421098       4.35218569      -0.94230973
  H           -0.94421098      -2.39153253       1.79485047
  H            3.56713674      -2.39153253       1.79485047
  C            2.62292576       2.94097974      -0.42627037
  C            0.00000000       2.94097974      -0.42627037
  C            0.00000000      -0.98032658       1.27881112
  C            2.62292576      -0.98032658       1.27881112
--
  N           -1.33084758       0.98032658     -20.73733942
  N            3.95377333       0.98032658     -20.73733942
  H            3.56713674       4.35218569     -22.10591952
  H           -0.94421098       4.35218569     -22.10591952
  H           -0.94421098      -2.39153253     -19.36875932
  H            3.56713674      -2.39153253     -19.36875932
  C            2.62292576       2.94097974     -21.58988017
  C            0.00000000       2.94097974     -21.58988017
  C            0.00000000      -0.98032658     -19.88479867
  C            2.62292576      -0.98032658     -19.88479867
units = au
no_com
no_reorient
}

set {
  e_convergence 10
  d_convergence 10
  scf_type df
  mp2_type df
  cc_type df
  freeze_core true
}

energy('sapt0/aug-cc-pvdz')

--------------------------------------------------------------------------

  //              Dimer HF             //
    Molecular point group: c1
  Charge       = 0
  Multiplicity = 1
  Basis Set: AUG-CC-PVDZ
    Blend: AUG-CC-PVDZ
  Basis Set: (AUG-CC-PVDZ AUX)
    Blend: AUG-CC-PVDZ-JKFIT
  @DF-RHF Final Energy:  -525.27988873509048
    Total Energy =                       -525.2798887350904806
  //            Monomer A HF           //
    Molecular point group: c1
  Multiplicity = 1
  Basis Set: AUG-CC-PVDZ
    Blend: AUG-CC-PVDZ
  Basis Set: (AUG-CC-PVDZ AUX)
    Blend: AUG-CC-PVDZ-JKFIT
  @DF-RHF Final Energy:  -262.63994571998660
    Total Energy =                       -262.6399457199865992
  //            Monomer B HF           //
    Molecular point group: c1

    Geometry (in Bohr), charge = 0, multiplicity = 1:

       Center              X                  Y                   Z               Mass
    ------------   -----------------  -----------------  -----------------  -----------------
      Gh(N)          -1.330847580000     0.980326580000     0.426270370000    14.003074004430
      Gh(N)           3.953773330000     0.980326580000     0.426270370000    14.003074004430
      Gh(H)           3.567136740000     4.352185690000    -0.942309730000     1.007825032230
      Gh(H)          -0.944210980000     4.352185690000    -0.942309730000     1.007825032230
      Gh(H)          -0.944210980000    -2.391532530000     1.794850470000     1.007825032230
      Gh(H)           3.567136740000    -2.391532530000     1.794850470000     1.007825032230
      Gh(C)           2.622925760000     2.940979740000    -0.426270370000    12.000000000000
      Gh(C)           0.000000000000     2.940979740000    -0.426270370000    12.000000000000
      Gh(C)           0.000000000000    -0.980326580000     1.278811120000    12.000000000000
      Gh(C)           2.622925760000    -0.980326580000     1.278811120000    12.000000000000
         N           -1.330847580000     0.980326580000   -20.737339420000    14.003074004430
         N            3.953773330000     0.980326580000   -20.737339420000    14.003074004430
         H            3.567136740000     4.352185690000   -22.105919520000     1.007825032230
         H           -0.944210980000     4.352185690000   -22.105919520000     1.007825032230
         H           -0.944210980000    -2.391532530000   -19.368759320000     1.007825032230
         H            3.567136740000    -2.391532530000   -19.368759320000     1.007825032230
         C            2.622925760000     2.940979740000   -21.589880170000    12.000000000000
         C            0.000000000000     2.940979740000   -21.589880170000    12.000000000000
         C            0.000000000000    -0.980326580000   -19.884798670000    12.000000000000
         C            2.622925760000    -0.980326580000   -19.884798670000    12.000000000000

  Charge       = 0
  Multiplicity = 1
  Basis Set: AUG-CC-PVDZ
    Blend: AUG-CC-PVDZ
  Basis Set: (AUG-CC-PVDZ AUX)
    Blend: AUG-CC-PVDZ-JKFIT

    Orbital Energies [Eh]
    ---------------------

    Doubly Occupied:

       1A    -15.598072     2A    -15.598053     3A    -11.274238
       4A    -11.274194     5A    -11.272974     6A    -11.272969
       7A     -1.313347     8A     -1.224175     9A     -1.076803
      10A     -0.922662    11A     -0.919282    12A     -0.760637
      13A     -0.738402    14A     -0.706214    15A     -0.647687
      16A     -0.580711    17A     -0.574369    18A     -0.497113
      19A     -0.434288    20A     -0.415855    21A     -0.359924

  @DF-RHF Final Energy:  -262.63994571933790

   => Energetics <=

    Nuclear Repulsion Energy =            212.5517310423005313
    One-Electron Energy =                -775.4594148552731667
    Two-Electron Energy =                 300.2677380936347618
    Total Energy =                       -262.6399457193379021

  Dipole Moment: [D]
     X:     0.0000      Y:     0.0000      Z:     0.0000     Total:     0.0000

    SAPT Results
  --------------------------------------------------------------------------------------------------------
    Electrostatics                  0.00276271 [mEh]       0.00173363 [kcal/mol]       0.00725349 [kJ/mol]
      Elst10,r                      0.00276271 [mEh]       0.00173363 [kcal/mol]       0.00725349 [kJ/mol]

    Exchange                       -0.00000038 [mEh]      -0.00000024 [kcal/mol]      -0.00000100 [kJ/mol]
      Exch10                       -0.00000038 [mEh]      -0.00000024 [kcal/mol]      -0.00000100 [kJ/mol]
      Exch10(S^2)                  -0.00000038 [mEh]      -0.00000024 [kcal/mol]      -0.00000100 [kJ/mol]

    Induction                      -0.00005810 [mEh]      -0.00003646 [kcal/mol]      -0.00015253 [kJ/mol]
      Ind20,r                      -0.00008055 [mEh]      -0.00005055 [kcal/mol]      -0.00021149 [kJ/mol]
      Exch-Ind20,r                  0.00000081 [mEh]       0.00000051 [kcal/mol]       0.00000213 [kJ/mol]
      delta HF,r (2)                0.00002165 [mEh]       0.00001358 [kcal/mol]       0.00005683 [kJ/mol]

    Dispersion                     -0.01554095 [mEh]      -0.00975209 [kcal/mol]      -0.04080275 [kJ/mol]
      Disp20                       -0.01554110 [mEh]      -0.00975219 [kcal/mol]      -0.04080316 [kJ/mol]
      Exch-Disp20                   0.00000016 [mEh]       0.00000010 [kcal/mol]       0.00000041 [kJ/mol]
      Disp20 (SS)                  -0.00777055 [mEh]      -0.00487609 [kcal/mol]      -0.02040158 [kJ/mol]
      Disp20 (OS)                  -0.00777055 [mEh]      -0.00487609 [kcal/mol]      -0.02040158 [kJ/mol]
      Exch-Disp20 (SS)              0.00000013 [mEh]       0.00000008 [kcal/mol]       0.00000035 [kJ/mol]
      Exch-Disp20 (OS)              0.00000002 [mEh]       0.00000001 [kcal/mol]       0.00000006 [kJ/mol]

  Total HF                          0.00270423 [mEh]       0.00169693 [kcal/mol]       0.00709997 [kJ/mol]
  Total SAPT0                      -0.01283671 [mEh]      -0.00805516 [kcal/mol]      -0.03370278 [kJ/mol]

  Special recipe for scaled SAPT0 (see Manual):
    Electrostatics sSAPT0           0.00276271 [mEh]       0.00173363 [kcal/mol]       0.00725349 [kJ/mol]
    Exchange sSAPT0                -0.00000038 [mEh]      -0.00000024 [kcal/mol]      -0.00000100 [kJ/mol]
    Induction sSAPT0               -0.00005810 [mEh]      -0.00003646 [kcal/mol]      -0.00015253 [kJ/mol]
    Dispersion sSAPT0              -0.01554095 [mEh]      -0.00975209 [kcal/mol]      -0.04080275 [kJ/mol]
  Total sSAPT0                     -0.01283671 [mEh]      -0.00805516 [kcal/mol]      -0.03370278 [kJ/mol]
  --------------------------------------------------------------------------------------------------------

*** Psi4 exiting successfully. Buy a developer a beer!
