                               Psi4 1.4.1 release

  ==> Input File <==

--------------------------------------------------------------------------
# PSI4 file produced by CrystaLattE

# Generated from:               pyrazine.xyz
# Psithon input for N-mer:      2mer-0+181
# Number of atoms per monomer:  [10, 10]
# Number of replicas:           2
# COM priority:                 3.592471911255e-05
# Minimum COM separations:      16.038
# Separation priority:          5.793778859295e-05
# Minimum monomer separations:  13.676
# Cutoff priority:              2.241898189933e-06
# Nuclear repulsion energy:     483.17921344968613

memory 7 GB

molecule Dimer_0_181 {
  N           -1.33084758       0.98032658       0.42627037
  N            3.95377333       0.98032658       0.42627037
  H            3.56713674       4.35218569      -0.94230973
  H           -0.94421098       4.35218569      -0.94230973
  H           -0.94421098      -2.39153253       1.79485047
  H            3.56713674      -2.39153253       1.79485047
  C            2.62292576       2.94097974      -0.42627037
  C            0.00000000       2.94097974      -0.42627037
  C            0.00000000      -0.98032658       1.27881112
  C            2.62292576      -0.98032658       1.27881112
--
  N           -1.33084758      12.03560236     -27.79187602
  N            3.95377333      12.03560236     -27.79187602
  H            3.56713674      15.40746147     -29.16045612
  H           -0.94421098      15.40746147     -29.16045612
  H           -0.94421098       8.66374325     -26.42329592
  H            3.56713674       8.66374325     -26.42329592
  C            2.62292576      13.99625552     -28.64441677
  C            0.00000000      13.99625552     -28.64441677
  C            0.00000000      10.07494920     -26.93933527
  C            2.62292576      10.07494920     -26.93933527
units = au
no_com
no_reorient
}

set {
  e_convergence 10
  d_convergence 10
  scf_type df
  mp2_type df
  cc_type df
  freeze_core true
}

energy('sapt0/aug-cc-pvdz')

--------------------------------------------------------------------------

  //              Dimer HF             //
    Molecular point group: c1
  Charge       = 0
  Multiplicity = 1
  Basis Set: AUG-CC-PVDZ
    Blend: AUG-CC-PVDZ
  Basis Set: (AUG-CC-PVDZ AUX)
    Blend: AUG-CC-PVDZ-JKFIT
  @DF-RHF Final Energy:  -525.27989213717990
    Total Energy =                       -525.2798921371798997
  //            Monomer A HF           //
    Molecular point group: c1
  Multiplicity = 1
  Basis Set: AUG-CC-PVDZ
    Blend: AUG-CC-PVDZ
  Basis Set: (AUG-CC-PVDZ AUX)
    Blend: AUG-CC-PVDZ-JKFIT
  @DF-RHF Final Energy:  -262.63994485117001
    Total Energy =                       -262.6399448511700143
  //            Monomer B HF           //
    Molecular point group: c1

    Geometry (in Bohr), charge = 0, multiplicity = 1:

       Center              X                  Y                   Z               Mass
    ------------   -----------------  -----------------  -----------------  -----------------
      Gh(N)          -1.330847580000     0.980326580000     0.426270370000    14.003074004430
      Gh(N)           3.953773330000     0.980326580000     0.426270370000    14.003074004430
      Gh(H)           3.567136740000     4.352185690000    -0.942309730000     1.007825032230
      Gh(H)          -0.944210980000     4.352185690000    -0.942309730000     1.007825032230
      Gh(H)          -0.944210980000    -2.391532530000     1.794850470000     1.007825032230
      Gh(H)           3.567136740000    -2.391532530000     1.794850470000     1.007825032230
      Gh(C)           2.622925760000     2.940979740000    -0.426270370000    12.000000000000
      Gh(C)           0.000000000000     2.940979740000    -0.426270370000    12.000000000000
      Gh(C)           0.000000000000    -0.980326580000     1.278811120000    12.000000000000
      Gh(C)           2.622925760000    -0.980326580000     1.278811120000    12.000000000000
         N           -1.330847580000    12.035602360000   -27.791876020000    14.003074004430
         N            3.953773330000    12.035602360000   -27.791876020000    14.003074004430
         H            3.567136740000    15.407461470000   -29.160456120000     1.007825032230
         H           -0.944210980000    15.407461470000   -29.160456120000     1.007825032230
         H           -0.944210980000     8.663743250000   -26.423295920000     1.007825032230
         H            3.567136740000     8.663743250000   -26.423295920000     1.007825032230
         C            2.622925760000    13.996255520000   -28.644416770000    12.000000000000
         C            0.000000000000    13.996255520000   -28.644416770000    12.000000000000
         C            0.000000000000    10.074949200000   -26.939335270000    12.000000000000
         C            2.622925760000    10.074949200000   -26.939335270000    12.000000000000

  Charge       = 0
  Multiplicity = 1
  Basis Set: AUG-CC-PVDZ
    Blend: AUG-CC-PVDZ
  Basis Set: (AUG-CC-PVDZ AUX)
    Blend: AUG-CC-PVDZ-JKFIT

    Orbital Energies [Eh]
    ---------------------

    Doubly Occupied:

       1A    -15.598072     2A    -15.598053     3A    -11.274239
       4A    -11.274194     5A    -11.272975     6A    -11.272969
       7A     -1.313347     8A     -1.224176     9A     -1.076803
      10A     -0.922662    11A     -0.919282    12A     -0.760637
      13A     -0.738402    14A     -0.706214    15A     -0.647687
      16A     -0.580711    17A     -0.574369    18A     -0.497113
      19A     -0.434288    20A     -0.415855    21A     -0.359924

  @DF-RHF Final Energy:  -262.63994484939843

   => Energetics <=

    Nuclear Repulsion Energy =            212.5517310423005597
    One-Electron Energy =                -775.4594094752019373
    Two-Electron Energy =                 300.2677335835028885
    Total Energy =                       -262.6399448493984323

  Dipole Moment: [D]
     X:     0.0000      Y:     0.0000      Z:    -0.0000     Total:     0.0000

    SAPT Results
  --------------------------------------------------------------------------------------------------------
    Electrostatics                 -0.00242496 [mEh]      -0.00152168 [kcal/mol]      -0.00636673 [kJ/mol]
      Elst10,r                     -0.00242496 [mEh]      -0.00152168 [kcal/mol]      -0.00636673 [kJ/mol]

    Exchange                       -0.00000000 [mEh]      -0.00000000 [kcal/mol]      -0.00000000 [kJ/mol]
      Exch10                       -0.00000000 [mEh]      -0.00000000 [kcal/mol]      -0.00000000 [kJ/mol]
      Exch10(S^2)                  -0.00000000 [mEh]      -0.00000000 [kcal/mol]      -0.00000000 [kJ/mol]

    Induction                      -0.00001165 [mEh]      -0.00000731 [kcal/mol]      -0.00003059 [kJ/mol]
      Ind20,r                      -0.00001085 [mEh]      -0.00000681 [kcal/mol]      -0.00002849 [kJ/mol]
      Exch-Ind20,r                  0.00000000 [mEh]       0.00000000 [kcal/mol]       0.00000000 [kJ/mol]
      delta HF,r (2)               -0.00000080 [mEh]      -0.00000050 [kcal/mol]      -0.00000211 [kJ/mol]

    Dispersion                     -0.00211966 [mEh]      -0.00133011 [kcal/mol]      -0.00556517 [kJ/mol]
      Disp20                       -0.00211966 [mEh]      -0.00133011 [kcal/mol]      -0.00556517 [kJ/mol]
      Exch-Disp20                   0.00000000 [mEh]       0.00000000 [kcal/mol]       0.00000000 [kJ/mol]
      Disp20 (SS)                  -0.00105983 [mEh]      -0.00066505 [kcal/mol]      -0.00278259 [kJ/mol]
      Disp20 (OS)                  -0.00105983 [mEh]      -0.00066505 [kcal/mol]      -0.00278259 [kJ/mol]
      Exch-Disp20 (SS)              0.00000000 [mEh]       0.00000000 [kcal/mol]       0.00000000 [kJ/mol]
      Exch-Disp20 (OS)              0.00000000 [mEh]       0.00000000 [kcal/mol]       0.00000000 [kJ/mol]

  Total HF                         -0.00243661 [mEh]      -0.00152900 [kcal/mol]      -0.00639732 [kJ/mol]
  Total SAPT0                      -0.00455627 [mEh]      -0.00285910 [kcal/mol]      -0.01196249 [kJ/mol]

  Special recipe for scaled SAPT0 (see Manual):
    Electrostatics sSAPT0          -0.00242496 [mEh]      -0.00152168 [kcal/mol]      -0.00636673 [kJ/mol]
    Exchange sSAPT0                -0.00000000 [mEh]      -0.00000000 [kcal/mol]      -0.00000000 [kJ/mol]
    Induction sSAPT0               -0.00001165 [mEh]      -0.00000731 [kcal/mol]      -0.00003059 [kJ/mol]
    Dispersion sSAPT0              -0.00211966 [mEh]      -0.00133011 [kcal/mol]      -0.00556517 [kJ/mol]
  Total sSAPT0                     -0.00455627 [mEh]      -0.00285910 [kcal/mol]      -0.01196249 [kJ/mol]
  --------------------------------------------------------------------------------------------------------

*** Psi4 exiting successfully. Buy a developer a beer!
