                               Psi4 1.4.1 release

  ==> Input File <==

--------------------------------------------------------------------------
# PSI4 file produced by CrystaLattE

# Generated from:               pyrazine.xyz
# Psithon input for N-mer:      2mer-0+132
# Number of atoms per monomer:  [10, 10]
# Number of replicas:           8
# COM priority:                 3.396498119886e-05
# Minimum COM separations:      16.340
# Separation priority:          7.405878994407e-05
# Minimum monomer separations:  12.601
# Cutoff priority:              3.110060344364e-06
# Nuclear repulsion energy:     482.3111984416564

memory 7 GB

molecule Dimer_0_132 {
  N           -1.33084758       0.98032658       0.42627037
  N            3.95377333       0.98032658       0.42627037
  H            3.56713674       4.35218569      -0.94230973
  H           -0.94421098       4.35218569      -0.94230973
  H           -0.94421098      -2.39153253       1.79485047
  H            3.56713674      -2.39153253       1.79485047
  C            2.62292576       2.94097974      -0.42627037
  C            0.00000000       2.94097974      -0.42627037
  C            0.00000000      -0.98032658       1.27881112
  C            2.62292576      -0.98032658       1.27881112
--
  N          -10.14207358     -26.65786287     -10.15553452
  N           -4.85745267     -26.65786287     -10.15553452
  H           -9.75543698     -30.02972198     -11.52411462
  H           -9.75543698     -23.28600376      -8.78695442
  H           -5.24408927     -30.02972198     -11.52411462
  H           -5.24408927     -23.28600376      -8.78695442
  C           -8.81122601     -28.61851603     -11.00807527
  C           -8.81122601     -24.69720971      -9.30299378
  C           -6.18830025     -28.61851603     -11.00807527
  C           -6.18830025     -24.69720971      -9.30299378
units = au
no_com
no_reorient
}

set {
  e_convergence 10
  d_convergence 10
  scf_type df
  mp2_type df
  cc_type df
  freeze_core true
}

energy('sapt0/aug-cc-pvdz')

--------------------------------------------------------------------------

  //              Dimer HF             //
    Molecular point group: c1
  Charge       = 0
  Multiplicity = 1
  Basis Set: AUG-CC-PVDZ
    Blend: AUG-CC-PVDZ
  Basis Set: (AUG-CC-PVDZ AUX)
    Blend: AUG-CC-PVDZ-JKFIT
  @DF-RHF Final Energy:  -525.27988633536893
    Total Energy =                       -525.2798863353689285
  //            Monomer A HF           //
    Molecular point group: c1
  Multiplicity = 1
  Basis Set: AUG-CC-PVDZ
    Blend: AUG-CC-PVDZ
  Basis Set: (AUG-CC-PVDZ AUX)
    Blend: AUG-CC-PVDZ-JKFIT
  @DF-RHF Final Energy:  -262.63994485714261
    Total Energy =                       -262.6399448571426092
  //            Monomer B HF           //
    Molecular point group: c1

    Geometry (in Bohr), charge = 0, multiplicity = 1:

       Center              X                  Y                   Z               Mass
    ------------   -----------------  -----------------  -----------------  -----------------
      Gh(N)          -1.330847580000     0.980326580000     0.426270370000    14.003074004430
      Gh(N)           3.953773330000     0.980326580000     0.426270370000    14.003074004430
      Gh(H)           3.567136740000     4.352185690000    -0.942309730000     1.007825032230
      Gh(H)          -0.944210980000     4.352185690000    -0.942309730000     1.007825032230
      Gh(H)          -0.944210980000    -2.391532530000     1.794850470000     1.007825032230
      Gh(H)           3.567136740000    -2.391532530000     1.794850470000     1.007825032230
      Gh(C)           2.622925760000     2.940979740000    -0.426270370000    12.000000000000
      Gh(C)           0.000000000000     2.940979740000    -0.426270370000    12.000000000000
      Gh(C)           0.000000000000    -0.980326580000     1.278811120000    12.000000000000
      Gh(C)           2.622925760000    -0.980326580000     1.278811120000    12.000000000000
         N          -10.142073580000   -26.657862870000   -10.155534520000    14.003074004430
         N           -4.857452670000   -26.657862870000   -10.155534520000    14.003074004430
         H           -9.755436980000   -30.029721980000   -11.524114620000     1.007825032230
         H           -9.755436980000   -23.286003760000    -8.786954420000     1.007825032230
         H           -5.244089270000   -30.029721980000   -11.524114620000     1.007825032230
         H           -5.244089270000   -23.286003760000    -8.786954420000     1.007825032230
         C           -8.811226010000   -28.618516030000   -11.008075270000    12.000000000000
         C           -8.811226010000   -24.697209710000    -9.302993780000    12.000000000000
         C           -6.188300250000   -28.618516030000   -11.008075270000    12.000000000000
         C           -6.188300250000   -24.697209710000    -9.302993780000    12.000000000000

  Charge       = 0
  Multiplicity = 1
  Basis Set: AUG-CC-PVDZ
    Blend: AUG-CC-PVDZ
  Basis Set: (AUG-CC-PVDZ AUX)
    Blend: AUG-CC-PVDZ-JKFIT

    Orbital Energies [Eh]
    ---------------------

    Doubly Occupied:

       1A    -15.598072     2A    -15.598053     3A    -11.274239
       4A    -11.274194     5A    -11.272975     6A    -11.272969
       7A     -1.313347     8A     -1.224176     9A     -1.076803
      10A     -0.922662    11A     -0.919282    12A     -0.760637
      13A     -0.738402    14A     -0.706214    15A     -0.647687
      16A     -0.580711    17A     -0.574369    18A     -0.497113
      19A     -0.434288    20A     -0.415855    21A     -0.359924

  @DF-RHF Final Energy:  -262.63994485060812

   => Energetics <=

    Nuclear Repulsion Energy =            212.5517311431129599
    One-Electron Energy =                -775.4594097581790493
    Two-Electron Energy =                 300.2677337644579438
    Total Energy =                       -262.6399448506081171

  Dipole Moment: [D]
     X:     0.0000      Y:     0.0000      Z:     0.0000     Total:     0.0000

    SAPT Results
  --------------------------------------------------------------------------------------------------------
    Electrostatics                  0.00341013 [mEh]       0.00213989 [kcal/mol]       0.00895328 [kJ/mol]
      Elst10,r                      0.00341013 [mEh]       0.00213989 [kcal/mol]       0.00895328 [kJ/mol]

    Exchange                        0.00000002 [mEh]       0.00000001 [kcal/mol]       0.00000004 [kJ/mol]
      Exch10                        0.00000002 [mEh]       0.00000001 [kcal/mol]       0.00000004 [kJ/mol]
      Exch10(S^2)                   0.00000002 [mEh]       0.00000001 [kcal/mol]       0.00000004 [kJ/mol]

    Induction                      -0.00003776 [mEh]      -0.00002369 [kcal/mol]      -0.00009914 [kJ/mol]
      Ind20,r                      -0.00003121 [mEh]      -0.00001959 [kcal/mol]      -0.00008195 [kJ/mol]
      Exch-Ind20,r                  0.00000002 [mEh]       0.00000002 [kcal/mol]       0.00000006 [kJ/mol]
      delta HF,r (2)               -0.00000657 [mEh]      -0.00000412 [kcal/mol]      -0.00001725 [kJ/mol]

    Dispersion                     -0.00221707 [mEh]      -0.00139123 [kcal/mol]      -0.00582091 [kJ/mol]
      Disp20                       -0.00221707 [mEh]      -0.00139123 [kcal/mol]      -0.00582091 [kJ/mol]
      Exch-Disp20                   0.00000000 [mEh]       0.00000000 [kcal/mol]       0.00000000 [kJ/mol]
      Disp20 (SS)                  -0.00110853 [mEh]      -0.00069562 [kcal/mol]      -0.00291046 [kJ/mol]
      Disp20 (OS)                  -0.00110853 [mEh]      -0.00069562 [kcal/mol]      -0.00291046 [kJ/mol]
      Exch-Disp20 (SS)              0.00000000 [mEh]       0.00000000 [kcal/mol]       0.00000000 [kJ/mol]
      Exch-Disp20 (OS)              0.00000000 [mEh]       0.00000000 [kcal/mol]       0.00000000 [kJ/mol]

  Total HF                          0.00337238 [mEh]       0.00211620 [kcal/mol]       0.00885419 [kJ/mol]
  Total SAPT0                       0.00115531 [mEh]       0.00072497 [kcal/mol]       0.00303328 [kJ/mol]

  Special recipe for scaled SAPT0 (see Manual):
    Electrostatics sSAPT0           0.00341013 [mEh]       0.00213989 [kcal/mol]       0.00895328 [kJ/mol]
    Exchange sSAPT0                 0.00000002 [mEh]       0.00000001 [kcal/mol]       0.00000004 [kJ/mol]
    Induction sSAPT0               -0.00003776 [mEh]      -0.00002369 [kcal/mol]      -0.00009914 [kJ/mol]
    Dispersion sSAPT0              -0.00221707 [mEh]      -0.00139123 [kcal/mol]      -0.00582091 [kJ/mol]
  Total sSAPT0                      0.00115531 [mEh]       0.00072497 [kcal/mol]       0.00303328 [kJ/mol]
  --------------------------------------------------------------------------------------------------------

*** Psi4 exiting successfully. Buy a developer a beer!
