                               Psi4 1.4.1 release

  ==> Input File <==

--------------------------------------------------------------------------
# PSI4 file produced by CrystaLattE

# Generated from:               pyrazine.xyz
# Psithon input for N-mer:      2mer-0+86
# Number of atoms per monomer:  [10, 10]
# Number of replicas:           2
# COM priority:                 7.346042547553e-05
# Minimum COM separations:      12.635
# Separation priority:          1.475538807950e-04
# Minimum monomer separations:  10.014
# Cutoff priority:              7.797119345592e-06
# Nuclear repulsion energy:     498.8710728104812

memory 7 GB

molecule Dimer_0_86 {
  N           -1.33084758       0.98032658       0.42627037
  N            3.95377333       0.98032658       0.42627037
  H            3.56713674       4.35218569      -0.94230973
  H           -0.94421098       4.35218569      -0.94230973
  H           -0.94421098      -2.39153253       1.79485047
  H            3.56713674      -2.39153253       1.79485047
  C            2.62292576       2.94097974      -0.42627037
  C            0.00000000       2.94097974      -0.42627037
  C            0.00000000      -0.98032658       1.27881112
  C            2.62292576      -0.98032658       1.27881112
--
  N           -1.33084758      12.03560236     -20.73733942
  N            3.95377333      12.03560236     -20.73733942
  H            3.56713674      15.40746147     -22.10591952
  H           -0.94421098      15.40746147     -22.10591952
  H           -0.94421098       8.66374325     -19.36875932
  H            3.56713674       8.66374325     -19.36875932
  C            2.62292576      13.99625552     -21.58988017
  C            0.00000000      13.99625552     -21.58988017
  C            0.00000000      10.07494920     -19.88479867
  C            2.62292576      10.07494920     -19.88479867
units = au
no_com
no_reorient
}

set {
  e_convergence 10
  d_convergence 10
  scf_type df
  mp2_type df
  cc_type df
  freeze_core true
}

energy('sapt0/aug-cc-pvdz')

--------------------------------------------------------------------------

  //              Dimer HF             //
    Molecular point group: c1
  Charge       = 0
  Multiplicity = 1
  Basis Set: AUG-CC-PVDZ
    Blend: AUG-CC-PVDZ
  Basis Set: (AUG-CC-PVDZ AUX)
    Blend: AUG-CC-PVDZ-JKFIT
  @DF-RHF Final Energy:  -525.27989560398044
    Total Energy =                       -525.2798956039804352
  //            Monomer A HF           //
    Molecular point group: c1
  Multiplicity = 1
  Basis Set: AUG-CC-PVDZ
    Blend: AUG-CC-PVDZ
  Basis Set: (AUG-CC-PVDZ AUX)
    Blend: AUG-CC-PVDZ-JKFIT
  @DF-RHF Final Energy:  -262.63994559087979
    Total Energy =                       -262.6399455908797904
  //            Monomer B HF           //
    Molecular point group: c1

    Geometry (in Bohr), charge = 0, multiplicity = 1:

       Center              X                  Y                   Z               Mass
    ------------   -----------------  -----------------  -----------------  -----------------
      Gh(N)          -1.330847580000     0.980326580000     0.426270370000    14.003074004430
      Gh(N)           3.953773330000     0.980326580000     0.426270370000    14.003074004430
      Gh(H)           3.567136740000     4.352185690000    -0.942309730000     1.007825032230
      Gh(H)          -0.944210980000     4.352185690000    -0.942309730000     1.007825032230
      Gh(H)          -0.944210980000    -2.391532530000     1.794850470000     1.007825032230
      Gh(H)           3.567136740000    -2.391532530000     1.794850470000     1.007825032230
      Gh(C)           2.622925760000     2.940979740000    -0.426270370000    12.000000000000
      Gh(C)           0.000000000000     2.940979740000    -0.426270370000    12.000000000000
      Gh(C)           0.000000000000    -0.980326580000     1.278811120000    12.000000000000
      Gh(C)           2.622925760000    -0.980326580000     1.278811120000    12.000000000000
         N           -1.330847580000    12.035602360000   -20.737339420000    14.003074004430
         N            3.953773330000    12.035602360000   -20.737339420000    14.003074004430
         H            3.567136740000    15.407461470000   -22.105919520000     1.007825032230
         H           -0.944210980000    15.407461470000   -22.105919520000     1.007825032230
         H           -0.944210980000     8.663743250000   -19.368759320000     1.007825032230
         H            3.567136740000     8.663743250000   -19.368759320000     1.007825032230
         C            2.622925760000    13.996255520000   -21.589880170000    12.000000000000
         C            0.000000000000    13.996255520000   -21.589880170000    12.000000000000
         C            0.000000000000    10.074949200000   -19.884798670000    12.000000000000
         C            2.622925760000    10.074949200000   -19.884798670000    12.000000000000

  Charge       = 0
  Multiplicity = 1
  Basis Set: AUG-CC-PVDZ
    Blend: AUG-CC-PVDZ
  Basis Set: (AUG-CC-PVDZ AUX)
    Blend: AUG-CC-PVDZ-JKFIT

    Orbital Energies [Eh]
    ---------------------

    Doubly Occupied:

       1A    -15.598072     2A    -15.598053     3A    -11.274239
       4A    -11.274194     5A    -11.272974     6A    -11.272969
       7A     -1.313347     8A     -1.224175     9A     -1.076803
      10A     -0.922662    11A     -0.919282    12A     -0.760637
      13A     -0.738402    14A     -0.706214    15A     -0.647687
      16A     -0.580711    17A     -0.574369    18A     -0.497113
      19A     -0.434288    20A     -0.415855    21A     -0.359924

  @DF-RHF Final Energy:  -262.63994559083221

   => Energetics <=

    Nuclear Repulsion Energy =            212.5517310423005597
    One-Electron Energy =                -775.4594136676579410
    Two-Electron Energy =                 300.2677370345252257
    Total Energy =                       -262.6399455908322125

  Dipole Moment: [D]
     X:     0.0000      Y:     0.0000      Z:     0.0000     Total:     0.0000

    SAPT Results
  --------------------------------------------------------------------------------------------------------
    Electrostatics                 -0.00430041 [mEh]      -0.00269855 [kcal/mol]      -0.01129072 [kJ/mol]
      Elst10,r                     -0.00430041 [mEh]      -0.00269855 [kcal/mol]      -0.01129072 [kJ/mol]

    Exchange                        0.00000008 [mEh]       0.00000005 [kcal/mol]       0.00000021 [kJ/mol]
      Exch10                        0.00000008 [mEh]       0.00000005 [kcal/mol]       0.00000021 [kJ/mol]
      Exch10(S^2)                   0.00000008 [mEh]       0.00000005 [kcal/mol]       0.00000021 [kJ/mol]

    Induction                      -0.00012194 [mEh]      -0.00007652 [kcal/mol]      -0.00032015 [kJ/mol]
      Ind20,r                      -0.00010489 [mEh]      -0.00006582 [kcal/mol]      -0.00027539 [kJ/mol]
      Exch-Ind20,r                  0.00000076 [mEh]       0.00000048 [kcal/mol]       0.00000200 [kJ/mol]
      delta HF,r (2)               -0.00001781 [mEh]      -0.00001117 [kcal/mol]      -0.00004675 [kJ/mol]

    Dispersion                     -0.00987858 [mEh]      -0.00619890 [kcal/mol]      -0.02593621 [kJ/mol]
      Disp20                       -0.00987869 [mEh]      -0.00619897 [kcal/mol]      -0.02593649 [kJ/mol]
      Exch-Disp20                   0.00000011 [mEh]       0.00000007 [kcal/mol]       0.00000028 [kJ/mol]
      Disp20 (SS)                  -0.00493934 [mEh]      -0.00309949 [kcal/mol]      -0.01296825 [kJ/mol]
      Disp20 (OS)                  -0.00493934 [mEh]      -0.00309949 [kcal/mol]      -0.01296825 [kJ/mol]
      Exch-Disp20 (SS)              0.00000009 [mEh]       0.00000006 [kcal/mol]       0.00000023 [kJ/mol]
      Exch-Disp20 (OS)              0.00000002 [mEh]       0.00000001 [kcal/mol]       0.00000005 [kJ/mol]

  Total HF                         -0.00442227 [mEh]      -0.00277502 [kcal/mol]      -0.01161066 [kJ/mol]
  Total SAPT0                      -0.01430085 [mEh]      -0.00897392 [kcal/mol]      -0.03754688 [kJ/mol]

  Special recipe for scaled SAPT0 (see Manual):
    Electrostatics sSAPT0          -0.00430041 [mEh]      -0.00269855 [kcal/mol]      -0.01129072 [kJ/mol]
    Exchange sSAPT0                 0.00000008 [mEh]       0.00000005 [kcal/mol]       0.00000021 [kJ/mol]
    Induction sSAPT0               -0.00012194 [mEh]      -0.00007652 [kcal/mol]      -0.00032015 [kJ/mol]
    Dispersion sSAPT0              -0.00987858 [mEh]      -0.00619890 [kcal/mol]      -0.02593621 [kJ/mol]
  Total sSAPT0                     -0.01430085 [mEh]      -0.00897392 [kcal/mol]      -0.03754688 [kJ/mol]
  --------------------------------------------------------------------------------------------------------

*** Psi4 exiting successfully. Buy a developer a beer!
