                               Psi4 1.4.1 release

  ==> Input File <==

--------------------------------------------------------------------------
# PSI4 file produced by CrystaLattE

# Generated from:               pyrazine.xyz
# Psithon input for N-mer:      2mer-0+215
# Number of atoms per monomer:  [10, 10]
# Number of replicas:           2
# COM priority:                 2.565082499813e-05
# Minimum COM separations:      17.943
# Separation priority:          4.469562345367e-05
# Minimum monomer separations:  14.911
# Cutoff priority:              1.586183152575e-06
# Nuclear repulsion energy:     477.12958369762066

memory 7 GB

molecule Dimer_0_215 {
  N           -1.33084758       0.98032658       0.42627037
  N            3.95377333       0.98032658       0.42627037
  H            3.56713674       4.35218569      -0.94230973
  H           -0.94421098       4.35218569      -0.94230973
  H           -0.94421098      -2.39153253       1.79485047
  H            3.56713674      -2.39153253       1.79485047
  C            2.62292576       2.94097974      -0.42627037
  C            0.00000000       2.94097974      -0.42627037
  C            0.00000000      -0.98032658       1.27881112
  C            2.62292576      -0.98032658       1.27881112
--
  N           -1.33084758     -32.18550076      -6.62826622
  N            3.95377333     -32.18550076      -6.62826622
  H            3.56713674     -28.81364165      -7.99684633
  H           -0.94421098     -28.81364165      -7.99684633
  H           -0.94421098     -35.55735987      -5.25968612
  H            3.56713674     -35.55735987      -5.25968612
  C            2.62292576     -30.22484760      -7.48080697
  C            0.00000000     -30.22484760      -7.48080697
  C            0.00000000     -34.14615392      -5.77572548
  C            2.62292576     -34.14615392      -5.77572548
units = au
no_com
no_reorient
}

set {
  e_convergence 10
  d_convergence 10
  scf_type df
  mp2_type df
  cc_type df
  freeze_core true
}

energy('sapt0/aug-cc-pvdz')

--------------------------------------------------------------------------

  //              Dimer HF             //
    Molecular point group: c1
  Charge       = 0
  Multiplicity = 1
  Basis Set: AUG-CC-PVDZ
    Blend: AUG-CC-PVDZ
  Basis Set: (AUG-CC-PVDZ AUX)
    Blend: AUG-CC-PVDZ-JKFIT
  @DF-RHF Final Energy:  -525.27988819322650
    Total Energy =                       -525.2798881932264976
  //            Monomer A HF           //
    Molecular point group: c1
  Multiplicity = 1
  Basis Set: AUG-CC-PVDZ
    Blend: AUG-CC-PVDZ
  Basis Set: (AUG-CC-PVDZ AUX)
    Blend: AUG-CC-PVDZ-JKFIT
  @DF-RHF Final Energy:  -262.63994484957368
    Total Energy =                       -262.6399448495736806
  //            Monomer B HF           //
    Molecular point group: c1

    Geometry (in Bohr), charge = 0, multiplicity = 1:

       Center              X                  Y                   Z               Mass
    ------------   -----------------  -----------------  -----------------  -----------------
      Gh(N)          -1.330847580000     0.980326580000     0.426270370000    14.003074004430
      Gh(N)           3.953773330000     0.980326580000     0.426270370000    14.003074004430
      Gh(H)           3.567136740000     4.352185690000    -0.942309730000     1.007825032230
      Gh(H)          -0.944210980000     4.352185690000    -0.942309730000     1.007825032230
      Gh(H)          -0.944210980000    -2.391532530000     1.794850470000     1.007825032230
      Gh(H)           3.567136740000    -2.391532530000     1.794850470000     1.007825032230
      Gh(C)           2.622925760000     2.940979740000    -0.426270370000    12.000000000000
      Gh(C)           0.000000000000     2.940979740000    -0.426270370000    12.000000000000
      Gh(C)           0.000000000000    -0.980326580000     1.278811120000    12.000000000000
      Gh(C)           2.622925760000    -0.980326580000     1.278811120000    12.000000000000
         N           -1.330847580000   -32.185500760000    -6.628266220000    14.003074004430
         N            3.953773330000   -32.185500760000    -6.628266220000    14.003074004430
         H            3.567136740000   -28.813641650000    -7.996846330000     1.007825032230
         H           -0.944210980000   -28.813641650000    -7.996846330000     1.007825032230
         H           -0.944210980000   -35.557359870000    -5.259686120000     1.007825032230
         H            3.567136740000   -35.557359870000    -5.259686120000     1.007825032230
         C            2.622925760000   -30.224847600000    -7.480806970000    12.000000000000
         C            0.000000000000   -30.224847600000    -7.480806970000    12.000000000000
         C            0.000000000000   -34.146153920000    -5.775725480000    12.000000000000
         C            2.622925760000   -34.146153920000    -5.775725480000    12.000000000000

  Charge       = 0
  Multiplicity = 1
  Basis Set: AUG-CC-PVDZ
    Blend: AUG-CC-PVDZ
  Basis Set: (AUG-CC-PVDZ AUX)
    Blend: AUG-CC-PVDZ-JKFIT

    Orbital Energies [Eh]
    ---------------------

    Doubly Occupied:

       1A    -15.598072     2A    -15.598053     3A    -11.274239
       4A    -11.274194     5A    -11.272975     6A    -11.272969
       7A     -1.313347     8A     -1.224176     9A     -1.076803
      10A     -0.922662    11A     -0.919282    12A     -0.760637
      13A     -0.738402    14A     -0.706214    15A     -0.647687
      16A     -0.580711    17A     -0.574369    18A     -0.497113
      19A     -0.434288    20A     -0.415855    21A     -0.359924

  @DF-RHF Final Energy:  -262.63994484973642

   => Energetics <=

    Nuclear Repulsion Energy =            212.5517310911745312
    One-Electron Energy =                -775.4594095909583302
    Two-Electron Energy =                 300.2677336500473189
    Total Energy =                       -262.6399448497364233

  Dipole Moment: [D]
     X:     0.0000      Y:    -0.0000      Z:     0.0000     Total:     0.0000

    SAPT Results
  --------------------------------------------------------------------------------------------------------
    Electrostatics                  0.00151352 [mEh]       0.00094975 [kcal/mol]       0.00397374 [kJ/mol]
      Elst10,r                      0.00151352 [mEh]       0.00094975 [kcal/mol]       0.00397374 [kJ/mol]

    Exchange                       -0.00000000 [mEh]      -0.00000000 [kcal/mol]      -0.00000000 [kJ/mol]
      Exch10                       -0.00000000 [mEh]      -0.00000000 [kcal/mol]      -0.00000000 [kJ/mol]
      Exch10(S^2)                  -0.00000000 [mEh]      -0.00000000 [kcal/mol]      -0.00000000 [kJ/mol]

    Induction                      -0.00000744 [mEh]      -0.00000467 [kcal/mol]      -0.00001952 [kJ/mol]
      Ind20,r                      -0.00000976 [mEh]      -0.00000612 [kcal/mol]      -0.00002562 [kJ/mol]
      Exch-Ind20,r                  0.00000000 [mEh]       0.00000000 [kcal/mol]       0.00000000 [kJ/mol]
      delta HF,r (2)                0.00000232 [mEh]       0.00000146 [kcal/mol]       0.00000610 [kJ/mol]

    Dispersion                     -0.00115438 [mEh]      -0.00072438 [kcal/mol]      -0.00303082 [kJ/mol]
      Disp20                       -0.00115438 [mEh]      -0.00072438 [kcal/mol]      -0.00303082 [kJ/mol]
      Exch-Disp20                   0.00000000 [mEh]       0.00000000 [kcal/mol]       0.00000000 [kJ/mol]
      Disp20 (SS)                  -0.00057719 [mEh]      -0.00036219 [kcal/mol]      -0.00151541 [kJ/mol]
      Disp20 (OS)                  -0.00057719 [mEh]      -0.00036219 [kcal/mol]      -0.00151541 [kJ/mol]
      Exch-Disp20 (SS)              0.00000000 [mEh]       0.00000000 [kcal/mol]       0.00000000 [kJ/mol]
      Exch-Disp20 (OS)              0.00000000 [mEh]       0.00000000 [kcal/mol]       0.00000000 [kJ/mol]

  Total HF                          0.00150608 [mEh]       0.00094508 [kcal/mol]       0.00395422 [kJ/mol]
  Total SAPT0                       0.00035171 [mEh]       0.00022070 [kcal/mol]       0.00092340 [kJ/mol]

  Special recipe for scaled SAPT0 (see Manual):
    Electrostatics sSAPT0           0.00151352 [mEh]       0.00094975 [kcal/mol]       0.00397374 [kJ/mol]
    Exchange sSAPT0                -0.00000000 [mEh]      -0.00000000 [kcal/mol]      -0.00000000 [kJ/mol]
    Induction sSAPT0               -0.00000744 [mEh]      -0.00000467 [kcal/mol]      -0.00001952 [kJ/mol]
    Dispersion sSAPT0              -0.00115438 [mEh]      -0.00072438 [kcal/mol]      -0.00303082 [kJ/mol]
  Total sSAPT0                      0.00035171 [mEh]       0.00022070 [kcal/mol]       0.00092340 [kJ/mol]
  --------------------------------------------------------------------------------------------------------

*** Psi4 exiting successfully. Buy a developer a beer!
