                               Psi4 1.4.1 release

  ==> Input File <==

--------------------------------------------------------------------------
# PSI4 file produced by CrystaLattE

# Generated from:               pyrazine.xyz
# Psithon input for N-mer:      2mer-0+24
# Number of atoms per monomer:  [10, 10]
# Number of replicas:           8
# COM priority:                 1.433611862342e-04
# Minimum COM separations:      10.111
# Separation priority:          6.926405103110e-04
# Minimum monomer separations:  5.981
# Cutoff priority:              6.128354101515e-05
# Nuclear repulsion energy:     518.0100313261065

memory 7 GB

molecule Dimer_0_24 {
  N           -1.33084758       0.98032658       0.42627037
  N            3.95377333       0.98032658       0.42627037
  H            3.56713674       4.35218569      -0.94230973
  H           -0.94421098       4.35218569      -0.94230973
  H           -0.94421098      -2.39153253       1.79485047
  H            3.56713674      -2.39153253       1.79485047
  C            2.62292576       2.94097974      -0.42627037
  C            0.00000000       2.94097974      -0.42627037
  C            0.00000000      -0.98032658       1.27881112
  C            2.62292576      -0.98032658       1.27881112
--
  N          -10.14207358     -15.60258709      -3.10099793
  N           -4.85745267     -15.60258709      -3.10099793
  H           -9.75543698     -18.97444620      -4.46957803
  H           -9.75543698     -12.23072798      -1.73241783
  H           -5.24408927     -18.97444620      -4.46957803
  H           -5.24408927     -12.23072798      -1.73241783
  C           -8.81122601     -17.56324025      -3.95353867
  C           -8.81122601     -13.64193393      -2.24845718
  C           -6.18830025     -17.56324025      -3.95353867
  C           -6.18830025     -13.64193393      -2.24845718
units = au
no_com
no_reorient
}

set {
  e_convergence 10
  d_convergence 10
  scf_type df
  mp2_type df
  cc_type df
  freeze_core true
}

energy('sapt0/aug-cc-pvdz')

--------------------------------------------------------------------------

  //              Dimer HF             //
    Molecular point group: c1
  Charge       = 0
  Multiplicity = 1
  Basis Set: AUG-CC-PVDZ
    Blend: AUG-CC-PVDZ
  Basis Set: (AUG-CC-PVDZ AUX)
    Blend: AUG-CC-PVDZ-JKFIT
  @DF-RHF Final Energy:  -525.27991962486146
    Total Energy =                       -525.2799196248614635
  //            Monomer A HF           //
    Molecular point group: c1
  Multiplicity = 1
  Basis Set: AUG-CC-PVDZ
    Blend: AUG-CC-PVDZ
  Basis Set: (AUG-CC-PVDZ AUX)
    Blend: AUG-CC-PVDZ-JKFIT
  @DF-RHF Final Energy:  -262.63996269946324
    Total Energy =                       -262.6399626994632399
  //            Monomer B HF           //
    Molecular point group: c1

    Geometry (in Bohr), charge = 0, multiplicity = 1:

       Center              X                  Y                   Z               Mass
    ------------   -----------------  -----------------  -----------------  -----------------
      Gh(N)          -1.330847580000     0.980326580000     0.426270370000    14.003074004430
      Gh(N)           3.953773330000     0.980326580000     0.426270370000    14.003074004430
      Gh(H)           3.567136740000     4.352185690000    -0.942309730000     1.007825032230
      Gh(H)          -0.944210980000     4.352185690000    -0.942309730000     1.007825032230
      Gh(H)          -0.944210980000    -2.391532530000     1.794850470000     1.007825032230
      Gh(H)           3.567136740000    -2.391532530000     1.794850470000     1.007825032230
      Gh(C)           2.622925760000     2.940979740000    -0.426270370000    12.000000000000
      Gh(C)           0.000000000000     2.940979740000    -0.426270370000    12.000000000000
      Gh(C)           0.000000000000    -0.980326580000     1.278811120000    12.000000000000
      Gh(C)           2.622925760000    -0.980326580000     1.278811120000    12.000000000000
         N          -10.142073580000   -15.602587090000    -3.100997930000    14.003074004430
         N           -4.857452670000   -15.602587090000    -3.100997930000    14.003074004430
         H           -9.755436980000   -18.974446200000    -4.469578030000     1.007825032230
         H           -9.755436980000   -12.230727980000    -1.732417830000     1.007825032230
         H           -5.244089270000   -18.974446200000    -4.469578030000     1.007825032230
         H           -5.244089270000   -12.230727980000    -1.732417830000     1.007825032230
         C           -8.811226010000   -17.563240250000    -3.953538670000    12.000000000000
         C           -8.811226010000   -13.641933930000    -2.248457180000    12.000000000000
         C           -6.188300250000   -17.563240250000    -3.953538670000    12.000000000000
         C           -6.188300250000   -13.641933930000    -2.248457180000    12.000000000000

  Charge       = 0
  Multiplicity = 1
  Basis Set: AUG-CC-PVDZ
    Blend: AUG-CC-PVDZ
  Basis Set: (AUG-CC-PVDZ AUX)
    Blend: AUG-CC-PVDZ-JKFIT

    Orbital Energies [Eh]
    ---------------------

    Doubly Occupied:

       1A    -15.598070     2A    -15.598051     3A    -11.274234
       4A    -11.274187     5A    -11.272973     6A    -11.272959
       7A     -1.313347     8A     -1.224176     9A     -1.076804
      10A     -0.922662    11A     -0.919283    12A     -0.760638
      13A     -0.738402    14A     -0.706215    15A     -0.647690
      16A     -0.580711    17A     -0.574370    18A     -0.497112
      19A     -0.434289    20A     -0.415856    21A     -0.359924

  @DF-RHF Final Energy:  -262.63996810296237

   => Energetics <=

    Nuclear Repulsion Energy =            212.5517311431129315
    One-Electron Energy =                -775.4594941750904127
    Two-Electron Energy =                 300.2677949290151673
    Total Energy =                       -262.6399681029623707

  Dipole Moment: [D]
     X:    -0.0002      Y:     0.0001      Z:    -0.0000     Total:     0.0002

    SAPT Results
  --------------------------------------------------------------------------------------------------------
    Electrostatics                  0.01296866 [mEh]       0.00813796 [kcal/mol]       0.03404921 [kJ/mol]
      Elst10,r                      0.01296866 [mEh]       0.00813796 [kcal/mol]       0.03404921 [kJ/mol]

    Exchange                        0.00000304 [mEh]       0.00000191 [kcal/mol]       0.00000798 [kJ/mol]
      Exch10                        0.00000304 [mEh]       0.00000191 [kcal/mol]       0.00000798 [kJ/mol]
      Exch10(S^2)                   0.00000304 [mEh]       0.00000191 [kcal/mol]       0.00000798 [kJ/mol]

    Induction                      -0.00179414 [mEh]      -0.00112584 [kcal/mol]      -0.00471050 [kJ/mol]
      Ind20,r                      -0.00175303 [mEh]      -0.00110004 [kcal/mol]      -0.00460259 [kJ/mol]
      Exch-Ind20,r                  0.00001537 [mEh]       0.00000964 [kcal/mol]       0.00004035 [kJ/mol]
      delta HF,r (2)               -0.00005647 [mEh]      -0.00003544 [kcal/mol]      -0.00014827 [kJ/mol]

    Dispersion                     -0.05099402 [mEh]      -0.03199923 [kcal/mol]      -0.13388479 [kJ/mol]
      Disp20                       -0.05099651 [mEh]      -0.03200079 [kcal/mol]      -0.13389131 [kJ/mol]
      Exch-Disp20                   0.00000248 [mEh]       0.00000156 [kcal/mol]       0.00000652 [kJ/mol]
      Disp20 (SS)                  -0.02549825 [mEh]      -0.01600040 [kcal/mol]      -0.06694565 [kJ/mol]
      Disp20 (OS)                  -0.02549825 [mEh]      -0.01600040 [kcal/mol]      -0.06694565 [kJ/mol]
      Exch-Disp20 (SS)              0.00000207 [mEh]       0.00000130 [kcal/mol]       0.00000545 [kJ/mol]
      Exch-Disp20 (OS)              0.00000041 [mEh]       0.00000026 [kcal/mol]       0.00000107 [kJ/mol]

  Total HF                          0.01117756 [mEh]       0.00701403 [kcal/mol]       0.02934669 [kJ/mol]
  Total SAPT0                      -0.03981646 [mEh]      -0.02498521 [kcal/mol]      -0.10453810 [kJ/mol]

  Special recipe for scaled SAPT0 (see Manual):
    Electrostatics sSAPT0           0.01296866 [mEh]       0.00813796 [kcal/mol]       0.03404921 [kJ/mol]
    Exchange sSAPT0                 0.00000304 [mEh]       0.00000191 [kcal/mol]       0.00000798 [kJ/mol]
    Induction sSAPT0               -0.00179414 [mEh]      -0.00112584 [kcal/mol]      -0.00471050 [kJ/mol]
    Dispersion sSAPT0              -0.05099402 [mEh]      -0.03199923 [kcal/mol]      -0.13388479 [kJ/mol]
  Total sSAPT0                     -0.03981646 [mEh]      -0.02498521 [kcal/mol]      -0.10453810 [kJ/mol]
  --------------------------------------------------------------------------------------------------------

*** Psi4 exiting successfully. Buy a developer a beer!
