                               Psi4 1.4.1 release

  ==> Input File <==

--------------------------------------------------------------------------
# PSI4 file produced by CrystaLattE

# Generated from:               pyrazine.xyz
# Psithon input for N-mer:      2mer-0+479
# Number of atoms per monomer:  [10, 10]
# Number of replicas:           2
# COM priority:                 1.156408522874e-05
# Minimum COM separations:      23.401
# Separation priority:          1.884631895916e-05
# Minimum monomer separations:  19.885
# Cutoff priority:              5.015359276351e-07
# Nuclear repulsion energy:     465.03791345302295

memory 7 GB

molecule Dimer_0_479 {
  N           -1.33084758       0.98032658       0.42627037
  N            3.95377333       0.98032658       0.42627037
  H            3.56713674       4.35218569      -0.94230973
  H           -0.94421098       4.35218569      -0.94230973
  H           -0.94421098      -2.39153253       1.79485047
  H            3.56713674      -2.39153253       1.79485047
  C            2.62292576       2.94097974      -0.42627037
  C            0.00000000       2.94097974      -0.42627037
  C            0.00000000      -0.98032658       1.27881112
  C            2.62292576      -0.98032658       1.27881112
--
  N           -1.33084758     -43.24077654       0.42627037
  N            3.95377333     -43.24077654       0.42627037
  H            3.56713674     -39.86891742      -0.94230973
  H           -0.94421098     -39.86891742      -0.94230973
  H           -0.94421098     -46.61263565       1.79485047
  H            3.56713674     -46.61263565       1.79485047
  C            2.62292576     -41.28012338      -0.42627037
  C            0.00000000     -41.28012338      -0.42627037
  C            0.00000000     -45.20142970       1.27881112
  C            2.62292576     -45.20142970       1.27881112
units = au
no_com
no_reorient
}

set {
  e_convergence 10
  d_convergence 10
  scf_type df
  mp2_type df
  cc_type df
  freeze_core true
}

energy('sapt0/aug-cc-pvdz')

--------------------------------------------------------------------------

  //              Dimer HF             //
    Molecular point group: c1
  Charge       = 0
  Multiplicity = 1
  Basis Set: AUG-CC-PVDZ
    Blend: AUG-CC-PVDZ
  Basis Set: (AUG-CC-PVDZ AUX)
    Blend: AUG-CC-PVDZ-JKFIT
  @DF-RHF Final Energy:  -525.27988802934510
    Total Energy =                       -525.2798880293451020
  //            Monomer A HF           //
    Molecular point group: c1
  Multiplicity = 1
  Basis Set: AUG-CC-PVDZ
    Blend: AUG-CC-PVDZ
  Basis Set: (AUG-CC-PVDZ AUX)
    Blend: AUG-CC-PVDZ-JKFIT
  @DF-RHF Final Energy:  -262.63994485018372
    Total Energy =                       -262.6399448501837242
  //            Monomer B HF           //
    Molecular point group: c1

    Geometry (in Bohr), charge = 0, multiplicity = 1:

       Center              X                  Y                   Z               Mass
    ------------   -----------------  -----------------  -----------------  -----------------
      Gh(N)          -1.330847580000     0.980326580000     0.426270370000    14.003074004430
      Gh(N)           3.953773330000     0.980326580000     0.426270370000    14.003074004430
      Gh(H)           3.567136740000     4.352185690000    -0.942309730000     1.007825032230
      Gh(H)          -0.944210980000     4.352185690000    -0.942309730000     1.007825032230
      Gh(H)          -0.944210980000    -2.391532530000     1.794850470000     1.007825032230
      Gh(H)           3.567136740000    -2.391532530000     1.794850470000     1.007825032230
      Gh(C)           2.622925760000     2.940979740000    -0.426270370000    12.000000000000
      Gh(C)           0.000000000000     2.940979740000    -0.426270370000    12.000000000000
      Gh(C)           0.000000000000    -0.980326580000     1.278811120000    12.000000000000
      Gh(C)           2.622925760000    -0.980326580000     1.278811120000    12.000000000000
         N           -1.330847580000   -43.240776540000     0.426270370000    14.003074004430
         N            3.953773330000   -43.240776540000     0.426270370000    14.003074004430
         H            3.567136740000   -39.868917420000    -0.942309730000     1.007825032230
         H           -0.944210980000   -39.868917420000    -0.942309730000     1.007825032230
         H           -0.944210980000   -46.612635650000     1.794850470000     1.007825032230
         H            3.567136740000   -46.612635650000     1.794850470000     1.007825032230
         C            2.622925760000   -41.280123380000    -0.426270370000    12.000000000000
         C            0.000000000000   -41.280123380000    -0.426270370000    12.000000000000
         C            0.000000000000   -45.201429700000     1.278811120000    12.000000000000
         C            2.622925760000   -45.201429700000     1.278811120000    12.000000000000

  Charge       = 0
  Multiplicity = 1
  Basis Set: AUG-CC-PVDZ
    Blend: AUG-CC-PVDZ
  Basis Set: (AUG-CC-PVDZ AUX)
    Blend: AUG-CC-PVDZ-JKFIT

    Orbital Energies [Eh]
    ---------------------

    Doubly Occupied:

       1A    -15.598072     2A    -15.598053     3A    -11.274239
       4A    -11.274194     5A    -11.272975     6A    -11.272969
       7A     -1.313347     8A     -1.224176     9A     -1.076803
      10A     -0.922662    11A     -0.919282    12A     -0.760637
      13A     -0.738402    14A     -0.706214    15A     -0.647687
      16A     -0.580711    17A     -0.574369    18A     -0.497113
      19A     -0.434288    20A     -0.415855    21A     -0.359924

  @DF-RHF Final Energy:  -262.63994485472801

   => Energetics <=

    Nuclear Repulsion Energy =            212.5517310597545588
    One-Electron Energy =                -775.4594095537834164
    Two-Electron Energy =                 300.2677336393009000
    Total Energy =                       -262.6399448547280144

  Dipole Moment: [D]
     X:     0.0000      Y:    -0.0000      Z:     0.0000     Total:     0.0000

    SAPT Results
  --------------------------------------------------------------------------------------------------------
    Electrostatics                  0.00167666 [mEh]       0.00105212 [kcal/mol]       0.00440207 [kJ/mol]
      Elst10,r                      0.00167666 [mEh]       0.00105212 [kcal/mol]       0.00440207 [kJ/mol]

    Exchange                        0.00000000 [mEh]       0.00000000 [kcal/mol]       0.00000000 [kJ/mol]
      Exch10                        0.00000000 [mEh]       0.00000000 [kcal/mol]       0.00000000 [kJ/mol]
      Exch10(S^2)                   0.00000000 [mEh]       0.00000000 [kcal/mol]       0.00000000 [kJ/mol]

    Induction                      -0.00000109 [mEh]      -0.00000069 [kcal/mol]      -0.00000287 [kJ/mol]
      Ind20,r                      -0.00000221 [mEh]      -0.00000139 [kcal/mol]      -0.00000580 [kJ/mol]
      Exch-Ind20,r                  0.00000000 [mEh]       0.00000000 [kcal/mol]       0.00000000 [kJ/mol]
      delta HF,r (2)                0.00000111 [mEh]       0.00000070 [kcal/mol]       0.00000292 [kJ/mol]

    Dispersion                     -0.00025038 [mEh]      -0.00015711 [kcal/mol]      -0.00065737 [kJ/mol]
      Disp20                       -0.00025038 [mEh]      -0.00015711 [kcal/mol]      -0.00065737 [kJ/mol]
      Exch-Disp20                   0.00000000 [mEh]       0.00000000 [kcal/mol]       0.00000000 [kJ/mol]
      Disp20 (SS)                  -0.00012519 [mEh]      -0.00007856 [kcal/mol]      -0.00032868 [kJ/mol]
      Disp20 (OS)                  -0.00012519 [mEh]      -0.00007856 [kcal/mol]      -0.00032868 [kJ/mol]
      Exch-Disp20 (SS)              0.00000000 [mEh]       0.00000000 [kcal/mol]       0.00000000 [kJ/mol]
      Exch-Disp20 (OS)              0.00000000 [mEh]       0.00000000 [kcal/mol]       0.00000000 [kJ/mol]

  Total HF                          0.00167557 [mEh]       0.00105143 [kcal/mol]       0.00439920 [kJ/mol]
  Total SAPT0                       0.00142519 [mEh]       0.00089432 [kcal/mol]       0.00374183 [kJ/mol]

  Special recipe for scaled SAPT0 (see Manual):
    Electrostatics sSAPT0           0.00167666 [mEh]       0.00105212 [kcal/mol]       0.00440207 [kJ/mol]
    Exchange sSAPT0                 0.00000000 [mEh]       0.00000000 [kcal/mol]       0.00000000 [kJ/mol]
    Induction sSAPT0               -0.00000109 [mEh]      -0.00000069 [kcal/mol]      -0.00000287 [kJ/mol]
    Dispersion sSAPT0              -0.00025038 [mEh]      -0.00015711 [kcal/mol]      -0.00065737 [kJ/mol]
  Total sSAPT0                      0.00142519 [mEh]       0.00089432 [kcal/mol]       0.00374183 [kJ/mol]
  --------------------------------------------------------------------------------------------------------

*** Psi4 exiting successfully. Buy a developer a beer!
