                               Psi4 1.4.1 release

  ==> Input File <==

--------------------------------------------------------------------------
# PSI4 file produced by CrystaLattE

# Generated from:               pyrazine.xyz
# Psithon input for N-mer:      2mer-0+31
# Number of atoms per monomer:  [10, 10]
# Number of replicas:           2
# COM priority:                 1.736457607046e-04
# Minimum COM separations:      9.485
# Separation priority:          5.559093596051e-04
# Minimum monomer separations:  6.436
# Cutoff priority:              4.570937834331e-05
# Nuclear repulsion energy:     523.8442642803861

memory 7 GB

molecule Dimer_0_31 {
  N           -1.33084758       0.98032658       0.42627037
  N            3.95377333       0.98032658       0.42627037
  H            3.56713674       4.35218569      -0.94230973
  H           -0.94421098       4.35218569      -0.94230973
  H           -0.94421098      -2.39153253       1.79485047
  H            3.56713674      -2.39153253       1.79485047
  C            2.62292576       2.94097974      -0.42627037
  C            0.00000000       2.94097974      -0.42627037
  C            0.00000000      -0.98032658       1.27881112
  C            2.62292576      -0.98032658       1.27881112
--
  N           -1.33084758     -10.07494920      14.53534357
  N            3.95377333     -10.07494920      14.53534357
  H            3.56713674      -6.70309009      13.16676347
  H           -0.94421098      -6.70309009      13.16676347
  H           -0.94421098     -13.44680831      15.90392367
  H            3.56713674     -13.44680831      15.90392367
  C            2.62292576      -8.11429604      13.68280282
  C            0.00000000      -8.11429604      13.68280282
  C            0.00000000     -12.03560236      15.38788432
  C            2.62292576     -12.03560236      15.38788432
units = au
no_com
no_reorient
}

set {
  e_convergence 10
  d_convergence 10
  scf_type df
  mp2_type df
  cc_type df
  freeze_core true
}

energy('sapt0/aug-cc-pvdz')

--------------------------------------------------------------------------

  //              Dimer HF             //
    Molecular point group: c1
  Charge       = 0
  Multiplicity = 1
  Basis Set: AUG-CC-PVDZ
    Blend: AUG-CC-PVDZ
  Basis Set: (AUG-CC-PVDZ AUX)
    Blend: AUG-CC-PVDZ-JKFIT
  @DF-RHF Final Energy:  -525.27989175844209
    Total Energy =                       -525.2798917584420906
  //            Monomer A HF           //
    Molecular point group: c1
  Multiplicity = 1
  Basis Set: AUG-CC-PVDZ
    Blend: AUG-CC-PVDZ
  Basis Set: (AUG-CC-PVDZ AUX)
    Blend: AUG-CC-PVDZ-JKFIT
  @DF-RHF Final Energy:  -262.63995901281299
    Total Energy =                       -262.6399590128129944
  //            Monomer B HF           //
    Molecular point group: c1

    Geometry (in Bohr), charge = 0, multiplicity = 1:

       Center              X                  Y                   Z               Mass
    ------------   -----------------  -----------------  -----------------  -----------------
      Gh(N)          -1.330847580000     0.980326580000     0.426270370000    14.003074004430
      Gh(N)           3.953773330000     0.980326580000     0.426270370000    14.003074004430
      Gh(H)           3.567136740000     4.352185690000    -0.942309730000     1.007825032230
      Gh(H)          -0.944210980000     4.352185690000    -0.942309730000     1.007825032230
      Gh(H)          -0.944210980000    -2.391532530000     1.794850470000     1.007825032230
      Gh(H)           3.567136740000    -2.391532530000     1.794850470000     1.007825032230
      Gh(C)           2.622925760000     2.940979740000    -0.426270370000    12.000000000000
      Gh(C)           0.000000000000     2.940979740000    -0.426270370000    12.000000000000
      Gh(C)           0.000000000000    -0.980326580000     1.278811120000    12.000000000000
      Gh(C)           2.622925760000    -0.980326580000     1.278811120000    12.000000000000
         N           -1.330847580000   -10.074949200000    14.535343570000    14.003074004430
         N            3.953773330000   -10.074949200000    14.535343570000    14.003074004430
         H            3.567136740000    -6.703090090000    13.166763470000     1.007825032230
         H           -0.944210980000    -6.703090090000    13.166763470000     1.007825032230
         H           -0.944210980000   -13.446808310000    15.903923670000     1.007825032230
         H            3.567136740000   -13.446808310000    15.903923670000     1.007825032230
         C            2.622925760000    -8.114296040000    13.682802820000    12.000000000000
         C            0.000000000000    -8.114296040000    13.682802820000    12.000000000000
         C            0.000000000000   -12.035602360000    15.387884320000    12.000000000000
         C            2.622925760000   -12.035602360000    15.387884320000    12.000000000000

  Charge       = 0
  Multiplicity = 1
  Basis Set: AUG-CC-PVDZ
    Blend: AUG-CC-PVDZ
  Basis Set: (AUG-CC-PVDZ AUX)
    Blend: AUG-CC-PVDZ-JKFIT

    Orbital Energies [Eh]
    ---------------------

    Doubly Occupied:

       1A    -15.598073     2A    -15.598054     3A    -11.274239
       4A    -11.274193     5A    -11.272977     6A    -11.272966
       7A     -1.313349     8A     -1.224178     9A     -1.076805
      10A     -0.922665    11A     -0.919285    12A     -0.760640
      13A     -0.738404    14A     -0.706218    15A     -0.647691
      16A     -0.580714    17A     -0.574371    18A     -0.497114
      19A     -0.434290    20A     -0.415858    21A     -0.359926

  @DF-RHF Final Energy:  -262.63995901089845

   => Energetics <=

    Nuclear Repulsion Energy =            212.5517310423005313
    One-Electron Energy =                -775.4593572672876007
    Two-Electron Energy =                 300.2676672140886467
    Total Energy =                       -262.6399590108984512

  Dipole Moment: [D]
     X:     0.0000      Y:     0.0003      Z:    -0.0003     Total:     0.0004

    SAPT Results
  --------------------------------------------------------------------------------------------------------
    Electrostatics                  0.02849671 [mEh]       0.01788195 [kcal/mol]       0.07481810 [kJ/mol]
      Elst10,r                      0.02849671 [mEh]       0.01788195 [kcal/mol]       0.07481810 [kJ/mol]

    Exchange                        0.00000515 [mEh]       0.00000323 [kcal/mol]       0.00001353 [kJ/mol]
      Exch10                        0.00000515 [mEh]       0.00000323 [kcal/mol]       0.00001353 [kJ/mol]
      Exch10(S^2)                   0.00000515 [mEh]       0.00000323 [kcal/mol]       0.00001353 [kJ/mol]

    Induction                      -0.00223659 [mEh]      -0.00140348 [kcal/mol]      -0.00587217 [kJ/mol]
      Ind20,r                      -0.00208620 [mEh]      -0.00130911 [kcal/mol]      -0.00547732 [kJ/mol]
      Exch-Ind20,r                  0.00001345 [mEh]       0.00000844 [kcal/mol]       0.00003531 [kJ/mol]
      delta HF,r (2)               -0.00016384 [mEh]      -0.00010281 [kcal/mol]      -0.00043017 [kJ/mol]

    Dispersion                     -0.07147965 [mEh]      -0.04485416 [kcal/mol]      -0.18766980 [kJ/mol]
      Disp20                       -0.07148534 [mEh]      -0.04485773 [kcal/mol]      -0.18768474 [kJ/mol]
      Exch-Disp20                   0.00000569 [mEh]       0.00000357 [kcal/mol]       0.00001494 [kJ/mol]
      Disp20 (SS)                  -0.03574267 [mEh]      -0.02242886 [kcal/mol]      -0.09384237 [kJ/mol]
      Disp20 (OS)                  -0.03574267 [mEh]      -0.02242886 [kcal/mol]      -0.09384237 [kJ/mol]
      Exch-Disp20 (SS)              0.00000444 [mEh]       0.00000279 [kcal/mol]       0.00001167 [kJ/mol]
      Exch-Disp20 (OS)              0.00000124 [mEh]       0.00000078 [kcal/mol]       0.00000327 [kJ/mol]

  Total HF                          0.02626527 [mEh]       0.01648171 [kcal/mol]       0.06895946 [kJ/mol]
  Total SAPT0                      -0.04521438 [mEh]      -0.02837245 [kcal/mol]      -0.11871035 [kJ/mol]

  Special recipe for scaled SAPT0 (see Manual):
    Electrostatics sSAPT0           0.02849671 [mEh]       0.01788195 [kcal/mol]       0.07481810 [kJ/mol]
    Exchange sSAPT0                 0.00000515 [mEh]       0.00000323 [kcal/mol]       0.00001353 [kJ/mol]
    Induction sSAPT0               -0.00223659 [mEh]      -0.00140348 [kcal/mol]      -0.00587217 [kJ/mol]
    Dispersion sSAPT0              -0.07147965 [mEh]      -0.04485416 [kcal/mol]      -0.18766980 [kJ/mol]
  Total sSAPT0                     -0.04521438 [mEh]      -0.02837245 [kcal/mol]      -0.11871035 [kJ/mol]
  --------------------------------------------------------------------------------------------------------

*** Psi4 exiting successfully. Buy a developer a beer!
