                               Psi4 1.4.1 release

  ==> Input File <==

--------------------------------------------------------------------------
# PSI4 file produced by CrystaLattE

# Generated from:               pyrazine.xyz
# Psithon input for N-mer:      2mer-0+346
# Number of atoms per monomer:  [10, 10]
# Number of replicas:           4
# COM priority:                 1.617551194299e-05
# Minimum COM separations:      20.924
# Separation priority:          2.349881394382e-05
# Minimum monomer separations:  18.475
# Cutoff priority:              6.730715858035e-07
# Nuclear repulsion energy:     469.7586704798863

memory 7 GB

molecule Dimer_0_346 {
  N           -1.33084758       0.98032658       0.42627037
  N            3.95377333       0.98032658       0.42627037
  H            3.56713674       4.35218569      -0.94230973
  H           -0.94421098       4.35218569      -0.94230973
  H           -0.94421098      -2.39153253       1.79485047
  H            3.56713674      -2.39153253       1.79485047
  C            2.62292576       2.94097974      -0.42627037
  C            0.00000000       2.94097974      -0.42627037
  C            0.00000000      -0.98032658       1.27881112
  C            2.62292576      -0.98032658       1.27881112
--
  N          -36.57575160     -10.07494920     -13.68280282
  N          -31.29113069     -10.07494920     -13.68280282
  H          -31.67776728      -6.70309009     -15.05138292
  H          -36.18911500      -6.70309009     -15.05138292
  H          -36.18911500     -13.44680831     -12.31422272
  H          -31.67776728     -13.44680831     -12.31422272
  C          -32.62197826      -8.11429604     -14.53534357
  C          -35.24490402      -8.11429604     -14.53534357
  C          -35.24490402     -12.03560236     -12.83026208
  C          -32.62197826     -12.03560236     -12.83026208
units = au
no_com
no_reorient
}

set {
  e_convergence 10
  d_convergence 10
  scf_type df
  mp2_type df
  cc_type df
  freeze_core true
}

energy('sapt0/aug-cc-pvdz')

--------------------------------------------------------------------------

  //              Dimer HF             //
    Molecular point group: c1
  Charge       = 0
  Multiplicity = 1
  Basis Set: AUG-CC-PVDZ
    Blend: AUG-CC-PVDZ
  Basis Set: (AUG-CC-PVDZ AUX)
    Blend: AUG-CC-PVDZ-JKFIT
  @DF-RHF Final Energy:  -525.27988729623257
    Total Energy =                       -525.2798872962325731
  //            Monomer A HF           //
    Molecular point group: c1
  Multiplicity = 1
  Basis Set: AUG-CC-PVDZ
    Blend: AUG-CC-PVDZ
  Basis Set: (AUG-CC-PVDZ AUX)
    Blend: AUG-CC-PVDZ-JKFIT
  @DF-RHF Final Energy:  -262.63994485310371
    Total Energy =                       -262.6399448531037137
  //            Monomer B HF           //
    Molecular point group: c1

    Geometry (in Bohr), charge = 0, multiplicity = 1:

       Center              X                  Y                   Z               Mass
    ------------   -----------------  -----------------  -----------------  -----------------
      Gh(N)          -1.330847580000     0.980326580000     0.426270370000    14.003074004430
      Gh(N)           3.953773330000     0.980326580000     0.426270370000    14.003074004430
      Gh(H)           3.567136740000     4.352185690000    -0.942309730000     1.007825032230
      Gh(H)          -0.944210980000     4.352185690000    -0.942309730000     1.007825032230
      Gh(H)          -0.944210980000    -2.391532530000     1.794850470000     1.007825032230
      Gh(H)           3.567136740000    -2.391532530000     1.794850470000     1.007825032230
      Gh(C)           2.622925760000     2.940979740000    -0.426270370000    12.000000000000
      Gh(C)           0.000000000000     2.940979740000    -0.426270370000    12.000000000000
      Gh(C)           0.000000000000    -0.980326580000     1.278811120000    12.000000000000
      Gh(C)           2.622925760000    -0.980326580000     1.278811120000    12.000000000000
         N          -36.575751600000   -10.074949200000   -13.682802820000    14.003074004430
         N          -31.291130690000   -10.074949200000   -13.682802820000    14.003074004430
         H          -31.677767280000    -6.703090090000   -15.051382920000     1.007825032230
         H          -36.189115000000    -6.703090090000   -15.051382920000     1.007825032230
         H          -36.189115000000   -13.446808310000   -12.314222720000     1.007825032230
         H          -31.677767280000   -13.446808310000   -12.314222720000     1.007825032230
         C          -32.621978260000    -8.114296040000   -14.535343570000    12.000000000000
         C          -35.244904020000    -8.114296040000   -14.535343570000    12.000000000000
         C          -35.244904020000   -12.035602360000   -12.830262080000    12.000000000000
         C          -32.621978260000   -12.035602360000   -12.830262080000    12.000000000000

  Charge       = 0
  Multiplicity = 1
  Basis Set: AUG-CC-PVDZ
    Blend: AUG-CC-PVDZ
  Basis Set: (AUG-CC-PVDZ AUX)
    Blend: AUG-CC-PVDZ-JKFIT

    Orbital Energies [Eh]
    ---------------------

    Doubly Occupied:

       1A    -15.598072     2A    -15.598053     3A    -11.274239
       4A    -11.274194     5A    -11.272975     6A    -11.272969
       7A     -1.313347     8A     -1.224176     9A     -1.076803
      10A     -0.922662    11A     -0.919282    12A     -0.760637
      13A     -0.738402    14A     -0.706214    15A     -0.647687
      16A     -0.580711    17A     -0.574369    18A     -0.497113
      19A     -0.434288    20A     -0.415855    21A     -0.359924

  @DF-RHF Final Energy:  -262.63994485207456

   => Energetics <=

    Nuclear Repulsion Energy =            212.5517311104853206
    One-Electron Energy =                -775.4594096374416949
    Two-Electron Energy =                 300.2677336748818107
    Total Energy =                       -262.6399448520745636

  Dipole Moment: [D]
     X:     0.0000      Y:    -0.0000      Z:     0.0000     Total:     0.0000

    SAPT Results
  --------------------------------------------------------------------------------------------------------
    Electrostatics                  0.00238976 [mEh]       0.00149960 [kcal/mol]       0.00627432 [kJ/mol]
      Elst10,r                      0.00238976 [mEh]       0.00149960 [kcal/mol]       0.00627432 [kJ/mol]

    Exchange                        0.00000000 [mEh]       0.00000000 [kcal/mol]       0.00000000 [kJ/mol]
      Exch10                        0.00000000 [mEh]       0.00000000 [kcal/mol]       0.00000000 [kJ/mol]
      Exch10(S^2)                   0.00000000 [mEh]       0.00000000 [kcal/mol]       0.00000000 [kJ/mol]

    Induction                       0.00001918 [mEh]       0.00001204 [kcal/mol]       0.00005036 [kJ/mol]
      Ind20,r                      -0.00000348 [mEh]      -0.00000218 [kcal/mol]      -0.00000913 [kJ/mol]
      Exch-Ind20,r                  0.00000000 [mEh]       0.00000000 [kcal/mol]       0.00000000 [kJ/mol]
      delta HF,r (2)                0.00002266 [mEh]       0.00001422 [kcal/mol]       0.00005950 [kJ/mol]

    Dispersion                     -0.00046194 [mEh]      -0.00028987 [kcal/mol]      -0.00121281 [kJ/mol]
      Disp20                       -0.00046194 [mEh]      -0.00028987 [kcal/mol]      -0.00121281 [kJ/mol]
      Exch-Disp20                   0.00000000 [mEh]       0.00000000 [kcal/mol]       0.00000000 [kJ/mol]
      Disp20 (SS)                  -0.00023097 [mEh]      -0.00014493 [kcal/mol]      -0.00060641 [kJ/mol]
      Disp20 (OS)                  -0.00023097 [mEh]      -0.00014493 [kcal/mol]      -0.00060641 [kJ/mol]
      Exch-Disp20 (SS)              0.00000000 [mEh]       0.00000000 [kcal/mol]       0.00000000 [kJ/mol]
      Exch-Disp20 (OS)              0.00000000 [mEh]       0.00000000 [kcal/mol]       0.00000000 [kJ/mol]

  Total HF                          0.00240895 [mEh]       0.00151164 [kcal/mol]       0.00632469 [kJ/mol]
  Total SAPT0                       0.00194701 [mEh]       0.00122177 [kcal/mol]       0.00511187 [kJ/mol]

  Special recipe for scaled SAPT0 (see Manual):
    Electrostatics sSAPT0           0.00238976 [mEh]       0.00149960 [kcal/mol]       0.00627432 [kJ/mol]
    Exchange sSAPT0                 0.00000000 [mEh]       0.00000000 [kcal/mol]       0.00000000 [kJ/mol]
    Induction sSAPT0                0.00001918 [mEh]       0.00001204 [kcal/mol]       0.00005036 [kJ/mol]
    Dispersion sSAPT0              -0.00046194 [mEh]      -0.00028987 [kcal/mol]      -0.00121281 [kJ/mol]
  Total sSAPT0                      0.00194701 [mEh]       0.00122177 [kcal/mol]       0.00511187 [kJ/mol]
  --------------------------------------------------------------------------------------------------------

*** Psi4 exiting successfully. Buy a developer a beer!
