                               Psi4 1.4.1 release

  ==> Input File <==

--------------------------------------------------------------------------
# PSI4 file produced by CrystaLattE

# Generated from:               pyrazine.xyz
# Psithon input for N-mer:      2mer-0+2
# Number of atoms per monomer:  [10, 10]
# Number of replicas:           2
# COM priority:                 2.848357697581e-03
# Minimum COM separations:      3.733
# Separation priority:          3.443976009062e-03
# Minimum monomer separations:  3.504
# Cutoff priority:              5.200919797302e-04
# Nuclear repulsion energy:     650.191671396248

memory 7 GB

molecule Dimer_0_2 {
  N           -1.33084758       0.98032658       0.42627037
  N            3.95377333       0.98032658       0.42627037
  H            3.56713674       4.35218569      -0.94230973
  H           -0.94421098       4.35218569      -0.94230973
  H           -0.94421098      -2.39153253       1.79485047
  H            3.56713674      -2.39153253       1.79485047
  C            2.62292576       2.94097974      -0.42627037
  C            0.00000000       2.94097974      -0.42627037
  C            0.00000000      -0.98032658       1.27881112
  C            2.62292576      -0.98032658       1.27881112
--
  N           -1.33084758       0.98032658      -6.62826622
  N            3.95377333       0.98032658      -6.62826622
  H            3.56713674       4.35218569      -7.99684633
  H           -0.94421098       4.35218569      -7.99684633
  H           -0.94421098      -2.39153253      -5.25968612
  H            3.56713674      -2.39153253      -5.25968612
  C            2.62292576       2.94097974      -7.48080697
  C            0.00000000       2.94097974      -7.48080697
  C            0.00000000      -0.98032658      -5.77572548
  C            2.62292576      -0.98032658      -5.77572548
units = au
no_com
no_reorient
}

set {
  e_convergence 10
  d_convergence 10
  scf_type df
  mp2_type df
  cc_type df
  freeze_core true
}

energy('sapt0/aug-cc-pvdz')

--------------------------------------------------------------------------

  //              Dimer HF             //
    Molecular point group: c1
  Charge       = 0
  Multiplicity = 1
  Basis Set: AUG-CC-PVDZ
    Blend: AUG-CC-PVDZ
  Basis Set: (AUG-CC-PVDZ AUX)
    Blend: AUG-CC-PVDZ-JKFIT
  @DF-RHF Final Energy:  -525.27700496477723
    Total Energy =                       -525.2770049647772339
  //            Monomer A HF           //
    Molecular point group: c1
  Multiplicity = 1
  Basis Set: AUG-CC-PVDZ
    Blend: AUG-CC-PVDZ
  Basis Set: (AUG-CC-PVDZ AUX)
    Blend: AUG-CC-PVDZ-JKFIT
  @DF-RHF Final Energy:  -262.64088453915804
    Total Energy =                       -262.6408845391580371
  //            Monomer B HF           //
    Molecular point group: c1

    Geometry (in Bohr), charge = 0, multiplicity = 1:

       Center              X                  Y                   Z               Mass
    ------------   -----------------  -----------------  -----------------  -----------------
      Gh(N)          -1.330847580000     0.980326580000     0.426270370000    14.003074004430
      Gh(N)           3.953773330000     0.980326580000     0.426270370000    14.003074004430
      Gh(H)           3.567136740000     4.352185690000    -0.942309730000     1.007825032230
      Gh(H)          -0.944210980000     4.352185690000    -0.942309730000     1.007825032230
      Gh(H)          -0.944210980000    -2.391532530000     1.794850470000     1.007825032230
      Gh(H)           3.567136740000    -2.391532530000     1.794850470000     1.007825032230
      Gh(C)           2.622925760000     2.940979740000    -0.426270370000    12.000000000000
      Gh(C)           0.000000000000     2.940979740000    -0.426270370000    12.000000000000
      Gh(C)           0.000000000000    -0.980326580000     1.278811120000    12.000000000000
      Gh(C)           2.622925760000    -0.980326580000     1.278811120000    12.000000000000
         N           -1.330847580000     0.980326580000    -6.628266220000    14.003074004430
         N            3.953773330000     0.980326580000    -6.628266220000    14.003074004430
         H            3.567136740000     4.352185690000    -7.996846330000     1.007825032230
         H           -0.944210980000     4.352185690000    -7.996846330000     1.007825032230
         H           -0.944210980000    -2.391532530000    -5.259686120000     1.007825032230
         H            3.567136740000    -2.391532530000    -5.259686120000     1.007825032230
         C            2.622925760000     2.940979740000    -7.480806970000    12.000000000000
         C            0.000000000000     2.940979740000    -7.480806970000    12.000000000000
         C            0.000000000000    -0.980326580000    -5.775725480000    12.000000000000
         C            2.622925760000    -0.980326580000    -5.775725480000    12.000000000000

  Charge       = 0
  Multiplicity = 1
  Basis Set: AUG-CC-PVDZ
    Blend: AUG-CC-PVDZ
  Basis Set: (AUG-CC-PVDZ AUX)
    Blend: AUG-CC-PVDZ-JKFIT

    Orbital Energies [Eh]
    ---------------------

    Doubly Occupied:

       1A    -15.598066     2A    -15.598047     3A    -11.274126
       4A    -11.274063     5A    -11.272873     6A    -11.272828
       7A     -1.313234     8A     -1.224063     9A     -1.076715
      10A     -0.922569    11A     -0.919183    12A     -0.760522
      13A     -0.738349    14A     -0.706106    15A     -0.647571
      16A     -0.580646    17A     -0.574368    18A     -0.497030
      19A     -0.434210    20A     -0.415769    21A     -0.359892

  @DF-RHF Final Energy:  -262.64088453937984

   => Energetics <=

    Nuclear Repulsion Energy =            212.5517310911746165
    One-Electron Energy =                -775.4647703297337102
    Two-Electron Energy =                 300.2721546991792820
    Total Energy =                       -262.6408845393798401

  Dipole Moment: [D]
     X:     0.0000      Y:    -0.0010      Z:    -0.0010     Total:     0.0014

    SAPT Results
  --------------------------------------------------------------------------------------------------------
    Electrostatics                 -2.33345403 [mEh]      -1.46426451 [kcal/mol]      -6.12648271 [kJ/mol]
      Elst10,r                     -2.33345403 [mEh]      -1.46426451 [kcal/mol]      -6.12648271 [kJ/mol]

    Exchange                        7.83990432 [mEh]       4.91961424 [kcal/mol]      20.58366597 [kJ/mol]
      Exch10                        7.83990432 [mEh]       4.91961424 [kcal/mol]      20.58366597 [kJ/mol]
      Exch10(S^2)                   7.82523544 [mEh]       4.91040937 [kcal/mol]      20.54515282 [kJ/mol]

    Induction                      -0.74233654 [mEh]      -0.46582321 [kcal/mol]      -1.94900431 [kJ/mol]
      Ind20,r                      -3.50852955 [mEh]      -2.20163553 [kcal/mol]      -9.21164308 [kJ/mol]
      Exch-Ind20,r                  3.27873691 [mEh]       2.05743847 [kcal/mol]       8.60832257 [kJ/mol]
      delta HF,r (2)               -0.51254389 [mEh]      -0.32162615 [kcal/mol]      -1.34568380 [kJ/mol]

    Dispersion                    -11.12731638 [mEh]      -6.98249644 [kcal/mol]     -29.21476512 [kJ/mol]
      Disp20                      -12.45482071 [mEh]      -7.81551799 [kcal/mol]     -32.70012726 [kJ/mol]
      Exch-Disp20                   1.32750433 [mEh]       0.83302154 [kcal/mol]       3.48536214 [kJ/mol]
      Disp20 (SS)                  -6.22741035 [mEh]      -3.90775899 [kcal/mol]     -16.35006363 [kJ/mol]
      Disp20 (OS)                  -6.22741035 [mEh]      -3.90775899 [kcal/mol]     -16.35006363 [kJ/mol]
      Exch-Disp20 (SS)              0.83298362 [mEh]       0.52270511 [kcal/mol]       2.18699819 [kJ/mol]
      Exch-Disp20 (OS)              0.49452071 [mEh]       0.31031643 [kcal/mol]       1.29836395 [kJ/mol]

  Total HF                          4.76411376 [mEh]       2.98952652 [kcal/mol]      12.50817896 [kJ/mol]
  Total SAPT0                      -6.36320261 [mEh]      -3.99296992 [kcal/mol]     -16.70658616 [kJ/mol]

  Special recipe for scaled SAPT0 (see Manual):
    Electrostatics sSAPT0          -2.33345403 [mEh]      -1.46426451 [kcal/mol]      -6.12648271 [kJ/mol]
    Exchange sSAPT0                 7.83990432 [mEh]       4.91961424 [kcal/mol]      20.58366597 [kJ/mol]
    Induction sSAPT0               -0.72386337 [mEh]      -0.45423112 [kcal/mol]      -1.90050301 [kJ/mol]
    Dispersion sSAPT0             -11.11983691 [mEh]      -6.97780301 [kcal/mol]     -29.19512778 [kJ/mol]
  Total sSAPT0                     -6.33724998 [mEh]      -3.97668440 [kcal/mol]     -16.63844753 [kJ/mol]
  --------------------------------------------------------------------------------------------------------

*** Psi4 exiting successfully. Buy a developer a beer!
