                               Psi4 1.4.1 release

  ==> Input File <==

--------------------------------------------------------------------------
# PSI4 file produced by CrystaLattE

# Generated from:               pyrazine.xyz
# Psithon input for N-mer:      2mer-0+33
# Number of atoms per monomer:  [10, 10]
# Number of replicas:           4
# COM priority:                 1.462084003465e-04
# Minimum COM separations:      10.045
# Separation priority:          3.483452003424e-04
# Minimum monomer separations:  7.521
# Cutoff priority:              2.451017665149e-05
# Nuclear repulsion energy:     518.6401274358573

memory 7 GB

molecule Dimer_0_33 {
  N           -1.33084758       0.98032658       0.42627037
  N            3.95377333       0.98032658       0.42627037
  H            3.56713674       4.35218569      -0.94230973
  H           -0.94421098       4.35218569      -0.94230973
  H           -0.94421098      -2.39153253       1.79485047
  H            3.56713674      -2.39153253       1.79485047
  C            2.62292576       2.94097974      -0.42627037
  C            0.00000000       2.94097974      -0.42627037
  C            0.00000000      -0.98032658       1.27881112
  C            2.62292576      -0.98032658       1.27881112
--
  N          -18.95329959       0.98032658      -6.62826622
  N          -13.66867868       0.98032658      -6.62826622
  H          -14.05531527       4.35218569      -7.99684633
  H          -18.56666299       4.35218569      -7.99684633
  H          -18.56666299      -2.39153253      -5.25968612
  H          -14.05531527      -2.39153253      -5.25968612
  C          -14.99952625       2.94097974      -7.48080697
  C          -17.62245201       2.94097974      -7.48080697
  C          -17.62245201      -0.98032658      -5.77572548
  C          -14.99952625      -0.98032658      -5.77572548
units = au
no_com
no_reorient
}

set {
  e_convergence 10
  d_convergence 10
  scf_type df
  mp2_type df
  cc_type df
  freeze_core true
}

energy('sapt0/aug-cc-pvdz')

--------------------------------------------------------------------------

  //              Dimer HF             //
    Molecular point group: c1
  Charge       = 0
  Multiplicity = 1
  Basis Set: AUG-CC-PVDZ
    Blend: AUG-CC-PVDZ
  Basis Set: (AUG-CC-PVDZ AUX)
    Blend: AUG-CC-PVDZ-JKFIT
  @DF-RHF Final Energy:  -525.27980153730846
    Total Energy =                       -525.2798015373084581
  //            Monomer A HF           //
    Molecular point group: c1
  Multiplicity = 1
  Basis Set: AUG-CC-PVDZ
    Blend: AUG-CC-PVDZ
  Basis Set: (AUG-CC-PVDZ AUX)
    Blend: AUG-CC-PVDZ-JKFIT
  @DF-RHF Final Energy:  -262.63996176300680
    Total Energy =                       -262.6399617630067951
  //            Monomer B HF           //
    Molecular point group: c1

    Geometry (in Bohr), charge = 0, multiplicity = 1:

       Center              X                  Y                   Z               Mass
    ------------   -----------------  -----------------  -----------------  -----------------
      Gh(N)          -1.330847580000     0.980326580000     0.426270370000    14.003074004430
      Gh(N)           3.953773330000     0.980326580000     0.426270370000    14.003074004430
      Gh(H)           3.567136740000     4.352185690000    -0.942309730000     1.007825032230
      Gh(H)          -0.944210980000     4.352185690000    -0.942309730000     1.007825032230
      Gh(H)          -0.944210980000    -2.391532530000     1.794850470000     1.007825032230
      Gh(H)           3.567136740000    -2.391532530000     1.794850470000     1.007825032230
      Gh(C)           2.622925760000     2.940979740000    -0.426270370000    12.000000000000
      Gh(C)           0.000000000000     2.940979740000    -0.426270370000    12.000000000000
      Gh(C)           0.000000000000    -0.980326580000     1.278811120000    12.000000000000
      Gh(C)           2.622925760000    -0.980326580000     1.278811120000    12.000000000000
         N          -18.953299590000     0.980326580000    -6.628266220000    14.003074004430
         N          -13.668678680000     0.980326580000    -6.628266220000    14.003074004430
         H          -14.055315270000     4.352185690000    -7.996846330000     1.007825032230
         H          -18.566662990000     4.352185690000    -7.996846330000     1.007825032230
         H          -18.566662990000    -2.391532530000    -5.259686120000     1.007825032230
         H          -14.055315270000    -2.391532530000    -5.259686120000     1.007825032230
         C          -14.999526250000     2.940979740000    -7.480806970000    12.000000000000
         C          -17.622452010000     2.940979740000    -7.480806970000    12.000000000000
         C          -17.622452010000    -0.980326580000    -5.775725480000    12.000000000000
         C          -14.999526250000    -0.980326580000    -5.775725480000    12.000000000000

  Charge       = 0
  Multiplicity = 1
  Basis Set: AUG-CC-PVDZ
    Blend: AUG-CC-PVDZ
  Basis Set: (AUG-CC-PVDZ AUX)
    Blend: AUG-CC-PVDZ-JKFIT

    Orbital Energies [Eh]
    ---------------------

    Doubly Occupied:

       1A    -15.598074     2A    -15.598055     3A    -11.274234
       4A    -11.274190     5A    -11.272971     6A    -11.272965
       7A     -1.313348     8A     -1.224176     9A     -1.076803
      10A     -0.922663    11A     -0.919283    12A     -0.760638
      13A     -0.738405    14A     -0.706214    15A     -0.647688
      16A     -0.580712    17A     -0.574370    18A     -0.497113
      19A     -0.434289    20A     -0.415856    21A     -0.359924

  @DF-RHF Final Energy:  -262.63996176417368

   => Energetics <=

    Nuclear Repulsion Energy =            212.5517310911746165
    One-Electron Energy =                -775.4594469945508308
    Two-Electron Energy =                 300.2677541392025660
    Total Energy =                       -262.6399617641736768

  Dipole Moment: [D]
     X:     0.0002      Y:     0.0000      Z:     0.0001     Total:     0.0002

    SAPT Results
  --------------------------------------------------------------------------------------------------------
    Electrostatics                  0.12366198 [mEh]       0.07759906 [kcal/mol]       0.32467448 [kJ/mol]
      Elst10,r                      0.12366198 [mEh]       0.07759906 [kcal/mol]       0.32467448 [kJ/mol]

    Exchange                       -0.00000423 [mEh]      -0.00000265 [kcal/mol]      -0.00001110 [kJ/mol]
      Exch10                       -0.00000423 [mEh]      -0.00000265 [kcal/mol]      -0.00001110 [kJ/mol]
      Exch10(S^2)                  -0.00000423 [mEh]      -0.00000265 [kcal/mol]      -0.00001110 [kJ/mol]

    Induction                      -0.00166788 [mEh]      -0.00104661 [kcal/mol]      -0.00437902 [kJ/mol]
      Ind20,r                      -0.00206850 [mEh]      -0.00129800 [kcal/mol]      -0.00543085 [kJ/mol]
      Exch-Ind20,r                  0.00000683 [mEh]       0.00000429 [kcal/mol]       0.00001793 [kJ/mol]
      delta HF,r (2)                0.00039379 [mEh]       0.00024711 [kcal/mol]       0.00103391 [kJ/mol]

    Dispersion                     -0.04998785 [mEh]      -0.03136785 [kcal/mol]      -0.13124308 [kJ/mol]
      Disp20                       -0.04999051 [mEh]      -0.03136952 [kcal/mol]      -0.13125006 [kJ/mol]
      Exch-Disp20                   0.00000266 [mEh]       0.00000167 [kcal/mol]       0.00000698 [kJ/mol]
      Disp20 (SS)                  -0.02499525 [mEh]      -0.01568476 [kcal/mol]      -0.06562503 [kJ/mol]
      Disp20 (OS)                  -0.02499525 [mEh]      -0.01568476 [kcal/mol]      -0.06562503 [kJ/mol]
      Exch-Disp20 (SS)              0.00000229 [mEh]       0.00000144 [kcal/mol]       0.00000602 [kJ/mol]
      Exch-Disp20 (OS)              0.00000036 [mEh]       0.00000023 [kcal/mol]       0.00000095 [kJ/mol]

  Total HF                          0.12198987 [mEh]       0.07654980 [kcal/mol]       0.32028436 [kJ/mol]
  Total SAPT0                       0.07200202 [mEh]       0.04518195 [kcal/mol]       0.18904128 [kJ/mol]

  Special recipe for scaled SAPT0 (see Manual):
    Electrostatics sSAPT0           0.12366198 [mEh]       0.07759906 [kcal/mol]       0.32467448 [kJ/mol]
    Exchange sSAPT0                -0.00000423 [mEh]      -0.00000265 [kcal/mol]      -0.00001110 [kJ/mol]
    Induction sSAPT0               -0.00166788 [mEh]      -0.00104661 [kcal/mol]      -0.00437902 [kJ/mol]
    Dispersion sSAPT0              -0.04998785 [mEh]      -0.03136785 [kcal/mol]      -0.13124308 [kJ/mol]
  Total sSAPT0                      0.07200202 [mEh]       0.04518195 [kcal/mol]       0.18904128 [kJ/mol]
  --------------------------------------------------------------------------------------------------------

*** Psi4 exiting successfully. Buy a developer a beer!
