                               Psi4 1.4.1 release

  ==> Input File <==

--------------------------------------------------------------------------
# PSI4 file produced by CrystaLattE

# Generated from:               pyrazine.xyz
# Psithon input for N-mer:      2mer-0+120
# Number of atoms per monomer:  [10, 10]
# Number of replicas:           8
# COM priority:                 4.098244800705e-05
# Minimum COM separations:      15.349
# Separation priority:          7.683144188107e-05
# Minimum monomer separations:  12.448
# Cutoff priority:              3.266269218606e-06
# Nuclear repulsion energy:     486.09247718533334

memory 7 GB

molecule Dimer_0_120 {
  N           -1.33084758       0.98032658       0.42627037
  N            3.95377333       0.98032658       0.42627037
  H            3.56713674       4.35218569      -0.94230973
  H           -0.94421098       4.35218569      -0.94230973
  H           -0.94421098      -2.39153253       1.79485047
  H            3.56713674      -2.39153253       1.79485047
  C            2.62292576       2.94097974      -0.42627037
  C            0.00000000       2.94097974      -0.42627037
  C            0.00000000      -0.98032658       1.27881112
  C            2.62292576      -0.98032658       1.27881112
--
  N          -27.76452559      -4.54731131     -10.15553452
  N          -22.47990468      -4.54731131     -10.15553452
  H          -27.37788899      -7.91917042     -11.52411462
  H          -27.37788899      -1.17545220      -8.78695442
  H          -22.86654128      -7.91917042     -11.52411462
  H          -22.86654128      -1.17545220      -8.78695442
  C          -26.43367802      -6.50796447     -11.00807527
  C          -26.43367802      -2.58665815      -9.30299378
  C          -23.81075226      -6.50796447     -11.00807527
  C          -23.81075226      -2.58665815      -9.30299378
units = au
no_com
no_reorient
}

set {
  e_convergence 10
  d_convergence 10
  scf_type df
  mp2_type df
  cc_type df
  freeze_core true
}

energy('sapt0/aug-cc-pvdz')

--------------------------------------------------------------------------

  //              Dimer HF             //
    Molecular point group: c1
  Charge       = 0
  Multiplicity = 1
  Basis Set: AUG-CC-PVDZ
    Blend: AUG-CC-PVDZ
  Basis Set: (AUG-CC-PVDZ AUX)
    Blend: AUG-CC-PVDZ-JKFIT
  @DF-RHF Final Energy:  -525.27988152144133
    Total Energy =                       -525.2798815214413253
  //            Monomer A HF           //
    Molecular point group: c1
  Multiplicity = 1
  Basis Set: AUG-CC-PVDZ
    Blend: AUG-CC-PVDZ
  Basis Set: (AUG-CC-PVDZ AUX)
    Blend: AUG-CC-PVDZ-JKFIT
  @DF-RHF Final Energy:  -262.63994486042554
    Total Energy =                       -262.6399448604255440
  //            Monomer B HF           //
    Molecular point group: c1

    Geometry (in Bohr), charge = 0, multiplicity = 1:

       Center              X                  Y                   Z               Mass
    ------------   -----------------  -----------------  -----------------  -----------------
      Gh(N)          -1.330847580000     0.980326580000     0.426270370000    14.003074004430
      Gh(N)           3.953773330000     0.980326580000     0.426270370000    14.003074004430
      Gh(H)           3.567136740000     4.352185690000    -0.942309730000     1.007825032230
      Gh(H)          -0.944210980000     4.352185690000    -0.942309730000     1.007825032230
      Gh(H)          -0.944210980000    -2.391532530000     1.794850470000     1.007825032230
      Gh(H)           3.567136740000    -2.391532530000     1.794850470000     1.007825032230
      Gh(C)           2.622925760000     2.940979740000    -0.426270370000    12.000000000000
      Gh(C)           0.000000000000     2.940979740000    -0.426270370000    12.000000000000
      Gh(C)           0.000000000000    -0.980326580000     1.278811120000    12.000000000000
      Gh(C)           2.622925760000    -0.980326580000     1.278811120000    12.000000000000
         N          -27.764525590000    -4.547311310000   -10.155534520000    14.003074004430
         N          -22.479904680000    -4.547311310000   -10.155534520000    14.003074004430
         H          -27.377888990000    -7.919170420000   -11.524114620000     1.007825032230
         H          -27.377888990000    -1.175452200000    -8.786954420000     1.007825032230
         H          -22.866541280000    -7.919170420000   -11.524114620000     1.007825032230
         H          -22.866541280000    -1.175452200000    -8.786954420000     1.007825032230
         C          -26.433678020000    -6.507964470000   -11.008075270000    12.000000000000
         C          -26.433678020000    -2.586658150000    -9.302993780000    12.000000000000
         C          -23.810752260000    -6.507964470000   -11.008075270000    12.000000000000
         C          -23.810752260000    -2.586658150000    -9.302993780000    12.000000000000

  Charge       = 0
  Multiplicity = 1
  Basis Set: AUG-CC-PVDZ
    Blend: AUG-CC-PVDZ
  Basis Set: (AUG-CC-PVDZ AUX)
    Blend: AUG-CC-PVDZ-JKFIT

    Orbital Energies [Eh]
    ---------------------

    Doubly Occupied:

       1A    -15.598072     2A    -15.598053     3A    -11.274239
       4A    -11.274194     5A    -11.272975     6A    -11.272969
       7A     -1.313347     8A     -1.224176     9A     -1.076803
      10A     -0.922662    11A     -0.919282    12A     -0.760637
      13A     -0.738402    14A     -0.706214    15A     -0.647687
      16A     -0.580711    17A     -0.574369    18A     -0.497113
      19A     -0.434288    20A     -0.415855    21A     -0.359924

  @DF-RHF Final Energy:  -262.63994485175999

   => Energetics <=

    Nuclear Repulsion Energy =            212.5517311431129315
    One-Electron Energy =                -775.4594097334914977
    Two-Electron Energy =                 300.2677337386185172
    Total Energy =                       -262.6399448517599922

  Dipole Moment: [D]
     X:     0.0000      Y:    -0.0000      Z:     0.0000     Total:     0.0000

    SAPT Results
  --------------------------------------------------------------------------------------------------------
    Electrostatics                  0.00818535 [mEh]       0.00513639 [kcal/mol]       0.02149064 [kJ/mol]
      Elst10,r                      0.00818535 [mEh]       0.00513639 [kcal/mol]       0.02149064 [kJ/mol]

    Exchange                        0.00000002 [mEh]       0.00000001 [kcal/mol]       0.00000005 [kJ/mol]
      Exch10                        0.00000002 [mEh]       0.00000001 [kcal/mol]       0.00000005 [kJ/mol]
      Exch10(S^2)                   0.00000002 [mEh]       0.00000001 [kcal/mol]       0.00000005 [kJ/mol]

    Induction                       0.00000537 [mEh]       0.00000337 [kcal/mol]       0.00001411 [kJ/mol]
      Ind20,r                      -0.00004835 [mEh]      -0.00003034 [kcal/mol]      -0.00012693 [kJ/mol]
      Exch-Ind20,r                  0.00000003 [mEh]       0.00000002 [kcal/mol]       0.00000007 [kJ/mol]
      delta HF,r (2)                0.00005369 [mEh]       0.00003369 [kcal/mol]       0.00014097 [kJ/mol]

    Dispersion                     -0.00324615 [mEh]      -0.00203699 [kcal/mol]      -0.00852278 [kJ/mol]
      Disp20                       -0.00324616 [mEh]      -0.00203699 [kcal/mol]      -0.00852278 [kJ/mol]
      Exch-Disp20                   0.00000000 [mEh]       0.00000000 [kcal/mol]       0.00000000 [kJ/mol]
      Disp20 (SS)                  -0.00162308 [mEh]      -0.00101850 [kcal/mol]      -0.00426139 [kJ/mol]
      Disp20 (OS)                  -0.00162308 [mEh]      -0.00101850 [kcal/mol]      -0.00426139 [kJ/mol]
      Exch-Disp20 (SS)              0.00000000 [mEh]       0.00000000 [kcal/mol]       0.00000000 [kJ/mol]
      Exch-Disp20 (OS)              0.00000000 [mEh]       0.00000000 [kcal/mol]       0.00000000 [kJ/mol]

  Total HF                          0.00819074 [mEh]       0.00513977 [kcal/mol]       0.02150480 [kJ/mol]
  Total SAPT0                       0.00494459 [mEh]       0.00310278 [kcal/mol]       0.01298202 [kJ/mol]

  Special recipe for scaled SAPT0 (see Manual):
    Electrostatics sSAPT0           0.00818535 [mEh]       0.00513639 [kcal/mol]       0.02149064 [kJ/mol]
    Exchange sSAPT0                 0.00000002 [mEh]       0.00000001 [kcal/mol]       0.00000005 [kJ/mol]
    Induction sSAPT0                0.00000537 [mEh]       0.00000337 [kcal/mol]       0.00001411 [kJ/mol]
    Dispersion sSAPT0              -0.00324615 [mEh]      -0.00203699 [kcal/mol]      -0.00852278 [kJ/mol]
  Total sSAPT0                      0.00494459 [mEh]       0.00310278 [kcal/mol]       0.01298202 [kJ/mol]
  --------------------------------------------------------------------------------------------------------

*** Psi4 exiting successfully. Buy a developer a beer!
