                               Psi4 1.4.1 release

  ==> Input File <==

--------------------------------------------------------------------------
# PSI4 file produced by CrystaLattE

# Generated from:               pyrazine.xyz
# Psithon input for N-mer:      2mer-0+441
# Number of atoms per monomer:  [10, 10]
# Number of replicas:           2
# COM priority:                 1.386077855722e-05
# Minimum COM separations:      22.030
# Separation priority:          2.146576514652e-05
# Minimum monomer separations:  19.041
# Cutoff priority:              5.965705787721e-07
# Nuclear repulsion energy:     467.47972352160855

memory 7 GB

molecule Dimer_0_441 {
  N           -1.33084758       0.98032658       0.42627037
  N            3.95377333       0.98032658       0.42627037
  H            3.56713674       4.35218569      -0.94230973
  H           -0.94421098       4.35218569      -0.94230973
  H           -0.94421098      -2.39153253       1.79485047
  H            3.56713674      -2.39153253       1.79485047
  C            2.62292576       2.94097974      -0.42627037
  C            0.00000000       2.94097974      -0.42627037
  C            0.00000000      -0.98032658       1.27881112
  C            2.62292576      -0.98032658       1.27881112
--
  N           -1.33084758     -21.13022498      35.69895337
  N            3.95377333     -21.13022498      35.69895337
  H            3.56713674     -17.75836587      34.33037327
  H           -0.94421098     -17.75836587      34.33037327
  H           -0.94421098     -24.50208409      37.06753347
  H            3.56713674     -24.50208409      37.06753347
  C            2.62292576     -19.16957182      34.84641262
  C            0.00000000     -19.16957182      34.84641262
  C            0.00000000     -23.09087814      36.55149412
  C            2.62292576     -23.09087814      36.55149412
units = au
no_com
no_reorient
}

set {
  e_convergence 10
  d_convergence 10
  scf_type df
  mp2_type df
  cc_type df
  freeze_core true
}

energy('sapt0/aug-cc-pvdz')

--------------------------------------------------------------------------

  //              Dimer HF             //
    Molecular point group: c1
  Charge       = 0
  Multiplicity = 1
  Basis Set: AUG-CC-PVDZ
    Blend: AUG-CC-PVDZ
  Basis Set: (AUG-CC-PVDZ AUX)
    Blend: AUG-CC-PVDZ-JKFIT
  @DF-RHF Final Energy:  -525.27988943368609
    Total Energy =                       -525.2798894336860940
  //            Monomer A HF           //
    Molecular point group: c1
  Multiplicity = 1
  Basis Set: AUG-CC-PVDZ
    Blend: AUG-CC-PVDZ
  Basis Set: (AUG-CC-PVDZ AUX)
    Blend: AUG-CC-PVDZ-JKFIT
  @DF-RHF Final Energy:  -262.63994485374940
    Total Energy =                       -262.6399448537493981
  //            Monomer B HF           //
    Molecular point group: c1

    Geometry (in Bohr), charge = 0, multiplicity = 1:

       Center              X                  Y                   Z               Mass
    ------------   -----------------  -----------------  -----------------  -----------------
      Gh(N)          -1.330847580000     0.980326580000     0.426270370000    14.003074004430
      Gh(N)           3.953773330000     0.980326580000     0.426270370000    14.003074004430
      Gh(H)           3.567136740000     4.352185690000    -0.942309730000     1.007825032230
      Gh(H)          -0.944210980000     4.352185690000    -0.942309730000     1.007825032230
      Gh(H)          -0.944210980000    -2.391532530000     1.794850470000     1.007825032230
      Gh(H)           3.567136740000    -2.391532530000     1.794850470000     1.007825032230
      Gh(C)           2.622925760000     2.940979740000    -0.426270370000    12.000000000000
      Gh(C)           0.000000000000     2.940979740000    -0.426270370000    12.000000000000
      Gh(C)           0.000000000000    -0.980326580000     1.278811120000    12.000000000000
      Gh(C)           2.622925760000    -0.980326580000     1.278811120000    12.000000000000
         N           -1.330847580000   -21.130224980000    35.698953370000    14.003074004430
         N            3.953773330000   -21.130224980000    35.698953370000    14.003074004430
         H            3.567136740000   -17.758365870000    34.330373270000     1.007825032230
         H           -0.944210980000   -17.758365870000    34.330373270000     1.007825032230
         H           -0.944210980000   -24.502084090000    37.067533470000     1.007825032230
         H            3.567136740000   -24.502084090000    37.067533470000     1.007825032230
         C            2.622925760000   -19.169571820000    34.846412620000    12.000000000000
         C            0.000000000000   -19.169571820000    34.846412620000    12.000000000000
         C            0.000000000000   -23.090878140000    36.551494120000    12.000000000000
         C            2.622925760000   -23.090878140000    36.551494120000    12.000000000000

  Charge       = 0
  Multiplicity = 1
  Basis Set: AUG-CC-PVDZ
    Blend: AUG-CC-PVDZ
  Basis Set: (AUG-CC-PVDZ AUX)
    Blend: AUG-CC-PVDZ-JKFIT

    Orbital Energies [Eh]
    ---------------------

    Doubly Occupied:

       1A    -15.598072     2A    -15.598053     3A    -11.274239
       4A    -11.274194     5A    -11.272975     6A    -11.272969
       7A     -1.313347     8A     -1.224176     9A     -1.076803
      10A     -0.922662    11A     -0.919282    12A     -0.760637
      13A     -0.738402    14A     -0.706214    15A     -0.647687
      16A     -0.580711    17A     -0.574369    18A     -0.497113
      19A     -0.434288    20A     -0.415855    21A     -0.359924

  @DF-RHF Final Energy:  -262.63994485044770

   => Energetics <=

    Nuclear Repulsion Energy =            212.5517310423005597
    One-Electron Energy =                -775.4594095025464640
    Two-Electron Energy =                 300.2677336097982561
    Total Energy =                       -262.6399448504477050

  Dipole Moment: [D]
     X:     0.0000      Y:    -0.0000      Z:     0.0000     Total:     0.0000

    SAPT Results
  --------------------------------------------------------------------------------------------------------
    Electrostatics                  0.00027265 [mEh]       0.00017109 [kcal/mol]       0.00071585 [kJ/mol]
      Elst10,r                      0.00027265 [mEh]       0.00017109 [kcal/mol]       0.00071585 [kJ/mol]

    Exchange                        0.00000000 [mEh]       0.00000000 [kcal/mol]       0.00000000 [kJ/mol]
      Exch10                        0.00000000 [mEh]       0.00000000 [kcal/mol]       0.00000000 [kJ/mol]
      Exch10(S^2)                   0.00000000 [mEh]       0.00000000 [kcal/mol]       0.00000000 [kJ/mol]

    Induction                      -0.00000214 [mEh]      -0.00000134 [kcal/mol]      -0.00000562 [kJ/mol]
      Ind20,r                      -0.00000169 [mEh]      -0.00000106 [kcal/mol]      -0.00000443 [kJ/mol]
      Exch-Ind20,r                  0.00000000 [mEh]       0.00000000 [kcal/mol]       0.00000000 [kJ/mol]
      delta HF,r (2)               -0.00000045 [mEh]      -0.00000028 [kcal/mol]      -0.00000119 [kJ/mol]

    Dispersion                     -0.00033587 [mEh]      -0.00021076 [kcal/mol]      -0.00088183 [kJ/mol]
      Disp20                       -0.00033587 [mEh]      -0.00021076 [kcal/mol]      -0.00088183 [kJ/mol]
      Exch-Disp20                   0.00000000 [mEh]       0.00000000 [kcal/mol]       0.00000000 [kJ/mol]
      Disp20 (SS)                  -0.00016793 [mEh]      -0.00010538 [kcal/mol]      -0.00044091 [kJ/mol]
      Disp20 (OS)                  -0.00016793 [mEh]      -0.00010538 [kcal/mol]      -0.00044091 [kJ/mol]
      Exch-Disp20 (SS)              0.00000000 [mEh]       0.00000000 [kcal/mol]       0.00000000 [kJ/mol]
      Exch-Disp20 (OS)              0.00000000 [mEh]       0.00000000 [kcal/mol]       0.00000000 [kJ/mol]

  Total HF                          0.00027051 [mEh]       0.00016975 [kcal/mol]       0.00071023 [kJ/mol]
  Total SAPT0                      -0.00006536 [mEh]      -0.00004101 [kcal/mol]      -0.00017160 [kJ/mol]

  Special recipe for scaled SAPT0 (see Manual):
    Electrostatics sSAPT0           0.00027265 [mEh]       0.00017109 [kcal/mol]       0.00071585 [kJ/mol]
    Exchange sSAPT0                 0.00000000 [mEh]       0.00000000 [kcal/mol]       0.00000000 [kJ/mol]
    Induction sSAPT0               -0.00000214 [mEh]      -0.00000134 [kcal/mol]      -0.00000562 [kJ/mol]
    Dispersion sSAPT0              -0.00033587 [mEh]      -0.00021076 [kcal/mol]      -0.00088183 [kJ/mol]
  Total sSAPT0                     -0.00006536 [mEh]      -0.00004101 [kcal/mol]      -0.00017160 [kJ/mol]
  --------------------------------------------------------------------------------------------------------

*** Psi4 exiting successfully. Buy a developer a beer!
