                               Psi4 1.4.1 release

  ==> Input File <==

--------------------------------------------------------------------------
# PSI4 file produced by CrystaLattE

# Generated from:               pyrazine.xyz
# Psithon input for N-mer:      2mer-0+25
# Number of atoms per monomer:  [10, 10]
# Number of replicas:           2
# COM priority:                 1.827262705319e-04
# Minimum COM separations:      9.325
# Separation priority:          5.324557703547e-04
# Minimum monomer separations:  6.529
# Cutoff priority:              4.315635106163e-05
# Nuclear repulsion energy:     526.4347562295377

memory 7 GB

molecule Dimer_0_25 {
  N           -1.33084758       0.98032658       0.42627037
  N            3.95377333       0.98032658       0.42627037
  H            3.56713674       4.35218569      -0.94230973
  H           -0.94421098       4.35218569      -0.94230973
  H           -0.94421098      -2.39153253       1.79485047
  H            3.56713674      -2.39153253       1.79485047
  C            2.62292576       2.94097974      -0.42627037
  C            0.00000000       2.94097974      -0.42627037
  C            0.00000000      -0.98032658       1.27881112
  C            2.62292576      -0.98032658       1.27881112
--
  N          -18.95329959       0.98032658       0.42627037
  N          -13.66867868       0.98032658       0.42627037
  H          -14.05531527       4.35218569      -0.94230973
  H          -18.56666299       4.35218569      -0.94230973
  H          -18.56666299      -2.39153253       1.79485047
  H          -14.05531527      -2.39153253       1.79485047
  C          -14.99952625       2.94097974      -0.42627037
  C          -17.62245201       2.94097974      -0.42627037
  C          -17.62245201      -0.98032658       1.27881112
  C          -14.99952625      -0.98032658       1.27881112
units = au
no_com
no_reorient
}

set {
  e_convergence 10
  d_convergence 10
  scf_type df
  mp2_type df
  cc_type df
  freeze_core true
}

energy('sapt0/aug-cc-pvdz')

--------------------------------------------------------------------------

  //              Dimer HF             //
    Molecular point group: c1
  Charge       = 0
  Multiplicity = 1
  Basis Set: AUG-CC-PVDZ
    Blend: AUG-CC-PVDZ
  Basis Set: (AUG-CC-PVDZ AUX)
    Blend: AUG-CC-PVDZ-JKFIT
  @DF-RHF Final Energy:  -525.27963663517153
    Total Energy =                       -525.2796366351715278
  //            Monomer A HF           //
    Molecular point group: c1
  Multiplicity = 1
  Basis Set: AUG-CC-PVDZ
    Blend: AUG-CC-PVDZ
  Basis Set: (AUG-CC-PVDZ AUX)
    Blend: AUG-CC-PVDZ-JKFIT
  @DF-RHF Final Energy:  -262.63999045966733
    Total Energy =                       -262.6399904596673309
  //            Monomer B HF           //
    Molecular point group: c1

    Geometry (in Bohr), charge = 0, multiplicity = 1:

       Center              X                  Y                   Z               Mass
    ------------   -----------------  -----------------  -----------------  -----------------
      Gh(N)          -1.330847580000     0.980326580000     0.426270370000    14.003074004430
      Gh(N)           3.953773330000     0.980326580000     0.426270370000    14.003074004430
      Gh(H)           3.567136740000     4.352185690000    -0.942309730000     1.007825032230
      Gh(H)          -0.944210980000     4.352185690000    -0.942309730000     1.007825032230
      Gh(H)          -0.944210980000    -2.391532530000     1.794850470000     1.007825032230
      Gh(H)           3.567136740000    -2.391532530000     1.794850470000     1.007825032230
      Gh(C)           2.622925760000     2.940979740000    -0.426270370000    12.000000000000
      Gh(C)           0.000000000000     2.940979740000    -0.426270370000    12.000000000000
      Gh(C)           0.000000000000    -0.980326580000     1.278811120000    12.000000000000
      Gh(C)           2.622925760000    -0.980326580000     1.278811120000    12.000000000000
         N          -18.953299590000     0.980326580000     0.426270370000    14.003074004430
         N          -13.668678680000     0.980326580000     0.426270370000    14.003074004430
         H          -14.055315270000     4.352185690000    -0.942309730000     1.007825032230
         H          -18.566662990000     4.352185690000    -0.942309730000     1.007825032230
         H          -18.566662990000    -2.391532530000     1.794850470000     1.007825032230
         H          -14.055315270000    -2.391532530000     1.794850470000     1.007825032230
         C          -14.999526250000     2.940979740000    -0.426270370000    12.000000000000
         C          -17.622452010000     2.940979740000    -0.426270370000    12.000000000000
         C          -17.622452010000    -0.980326580000     1.278811120000    12.000000000000
         C          -14.999526250000    -0.980326580000     1.278811120000    12.000000000000

  Charge       = 0
  Multiplicity = 1
  Basis Set: AUG-CC-PVDZ
    Blend: AUG-CC-PVDZ
  Basis Set: (AUG-CC-PVDZ AUX)
    Blend: AUG-CC-PVDZ-JKFIT

    Orbital Energies [Eh]
    ---------------------

    Doubly Occupied:

       1A    -15.598074     2A    -15.598056     3A    -11.274228
       4A    -11.274183     5A    -11.272964     6A    -11.272958
       7A     -1.313348     8A     -1.224177     9A     -1.076802
      10A     -0.922664    11A     -0.919282    12A     -0.760637
      13A     -0.738409    14A     -0.706214    15A     -0.647688
      16A     -0.580714    17A     -0.574369    18A     -0.497112
      19A     -0.434288    20A     -0.415855    21A     -0.359924

  @DF-RHF Final Energy:  -262.63999045871850

   => Energetics <=

    Nuclear Repulsion Energy =            212.5517311104853206
    One-Electron Energy =                -775.4595517603324879
    Two-Electron Energy =                 300.2678301911286667
    Total Energy =                       -262.6399904587185006

  Dipole Moment: [D]
     X:     0.0005      Y:     0.0000      Z:    -0.0000     Total:     0.0005

    SAPT Results
  --------------------------------------------------------------------------------------------------------
    Electrostatics                  0.34910307 [mEh]       0.21906548 [kcal/mol]       0.91656998 [kJ/mol]
      Elst10,r                      0.34910307 [mEh]       0.21906548 [kcal/mol]       0.91656998 [kJ/mol]

    Exchange                        0.00007881 [mEh]       0.00004945 [kcal/mol]       0.00020691 [kJ/mol]
      Exch10                        0.00007881 [mEh]       0.00004945 [kcal/mol]       0.00020691 [kJ/mol]
      Exch10(S^2)                   0.00007881 [mEh]       0.00004945 [kcal/mol]       0.00020691 [kJ/mol]

    Induction                      -0.00489866 [mEh]      -0.00307396 [kcal/mol]      -0.01286143 [kJ/mol]
      Ind20,r                      -0.00665989 [mEh]      -0.00417914 [kcal/mol]      -0.01748553 [kJ/mol]
      Exch-Ind20,r                  0.00005882 [mEh]       0.00003691 [kcal/mol]       0.00015444 [kJ/mol]
      delta HF,r (2)                0.00170240 [mEh]       0.00106827 [kcal/mol]       0.00446965 [kJ/mol]

    Dispersion                     -0.09201986 [mEh]      -0.05774333 [kcal/mol]      -0.24159811 [kJ/mol]
      Disp20                       -0.09204115 [mEh]      -0.05775670 [kcal/mol]      -0.24165402 [kJ/mol]
      Exch-Disp20                   0.00002129 [mEh]       0.00001336 [kcal/mol]       0.00005590 [kJ/mol]
      Disp20 (SS)                  -0.04602058 [mEh]      -0.02887835 [kcal/mol]      -0.12082701 [kJ/mol]
      Disp20 (OS)                  -0.04602058 [mEh]      -0.02887835 [kcal/mol]      -0.12082701 [kJ/mol]
      Exch-Disp20 (SS)              0.00001681 [mEh]       0.00001055 [kcal/mol]       0.00004414 [kJ/mol]
      Exch-Disp20 (OS)              0.00000448 [mEh]       0.00000281 [kcal/mol]       0.00001177 [kJ/mol]

  Total HF                          0.34428321 [mEh]       0.21604098 [kcal/mol]       0.90391545 [kJ/mol]
  Total SAPT0                       0.25226335 [mEh]       0.15829764 [kcal/mol]       0.66231734 [kJ/mol]

  Special recipe for scaled SAPT0 (see Manual):
    Electrostatics sSAPT0           0.34910307 [mEh]       0.21906548 [kcal/mol]       0.91656998 [kJ/mol]
    Exchange sSAPT0                 0.00007881 [mEh]       0.00004945 [kcal/mol]       0.00020691 [kJ/mol]
    Induction sSAPT0               -0.00489866 [mEh]      -0.00307396 [kcal/mol]      -0.01286143 [kJ/mol]
    Dispersion sSAPT0              -0.09201986 [mEh]      -0.05774333 [kcal/mol]      -0.24159811 [kJ/mol]
  Total sSAPT0                      0.25226335 [mEh]       0.15829764 [kcal/mol]       0.66231734 [kJ/mol]
  --------------------------------------------------------------------------------------------------------

*** Psi4 exiting successfully. Buy a developer a beer!
