                               Psi4 1.4.1 release

  ==> Input File <==

--------------------------------------------------------------------------
# PSI4 file produced by CrystaLattE

# Generated from:               pyrazine.xyz
# Psithon input for N-mer:      2mer-0+44
# Number of atoms per monomer:  [10, 10]
# Number of replicas:           8
# COM priority:                 1.164975437226e-04
# Minimum COM separations:      10.835
# Separation priority:          2.241173843810e-04
# Minimum monomer separations:  8.712
# Cutoff priority:              1.361342470721e-05
# Nuclear repulsion energy:     510.5342367287253

memory 7 GB

molecule Dimer_0_44 {
  N           -1.33084758       0.98032658       0.42627037
  N            3.95377333       0.98032658       0.42627037
  H            3.56713674       4.35218569      -0.94230973
  H           -0.94421098       4.35218569      -0.94230973
  H           -0.94421098      -2.39153253       1.79485047
  H            3.56713674      -2.39153253       1.79485047
  C            2.62292576       2.94097974      -0.42627037
  C            0.00000000       2.94097974      -0.42627037
  C            0.00000000      -0.98032658       1.27881112
  C            2.62292576      -0.98032658       1.27881112
--
  N          -10.14207358      -4.54731131     -17.21007112
  N           -4.85745267      -4.54731131     -17.21007112
  H           -9.75543698      -7.91917042     -18.57865122
  H           -9.75543698      -1.17545220     -15.84149102
  H           -5.24408927      -7.91917042     -18.57865122
  H           -5.24408927      -1.17545220     -15.84149102
  C           -8.81122601      -6.50796447     -18.06261187
  C           -8.81122601      -2.58665815     -16.35753038
  C           -6.18830025      -6.50796447     -18.06261187
  C           -6.18830025      -2.58665815     -16.35753038
units = au
no_com
no_reorient
}

set {
  e_convergence 10
  d_convergence 10
  scf_type df
  mp2_type df
  cc_type df
  freeze_core true
}

energy('sapt0/aug-cc-pvdz')

--------------------------------------------------------------------------

  //              Dimer HF             //
    Molecular point group: c1
  Charge       = 0
  Multiplicity = 1
  Basis Set: AUG-CC-PVDZ
    Blend: AUG-CC-PVDZ
  Basis Set: (AUG-CC-PVDZ AUX)
    Blend: AUG-CC-PVDZ-JKFIT
  @DF-RHF Final Energy:  -525.27988887155311
    Total Energy =                       -525.2798888715531120
  //            Monomer A HF           //
    Molecular point group: c1
  Multiplicity = 1
  Basis Set: AUG-CC-PVDZ
    Blend: AUG-CC-PVDZ
  Basis Set: (AUG-CC-PVDZ AUX)
    Blend: AUG-CC-PVDZ-JKFIT
  @DF-RHF Final Energy:  -262.63994842589051
    Total Energy =                       -262.6399484258905090
  //            Monomer B HF           //
    Molecular point group: c1

    Geometry (in Bohr), charge = 0, multiplicity = 1:

       Center              X                  Y                   Z               Mass
    ------------   -----------------  -----------------  -----------------  -----------------
      Gh(N)          -1.330847580000     0.980326580000     0.426270370000    14.003074004430
      Gh(N)           3.953773330000     0.980326580000     0.426270370000    14.003074004430
      Gh(H)           3.567136740000     4.352185690000    -0.942309730000     1.007825032230
      Gh(H)          -0.944210980000     4.352185690000    -0.942309730000     1.007825032230
      Gh(H)          -0.944210980000    -2.391532530000     1.794850470000     1.007825032230
      Gh(H)           3.567136740000    -2.391532530000     1.794850470000     1.007825032230
      Gh(C)           2.622925760000     2.940979740000    -0.426270370000    12.000000000000
      Gh(C)           0.000000000000     2.940979740000    -0.426270370000    12.000000000000
      Gh(C)           0.000000000000    -0.980326580000     1.278811120000    12.000000000000
      Gh(C)           2.622925760000    -0.980326580000     1.278811120000    12.000000000000
         N          -10.142073580000    -4.547311310000   -17.210071120000    14.003074004430
         N           -4.857452670000    -4.547311310000   -17.210071120000    14.003074004430
         H           -9.755436980000    -7.919170420000   -18.578651220000     1.007825032230
         H           -9.755436980000    -1.175452200000   -15.841491020000     1.007825032230
         H           -5.244089270000    -7.919170420000   -18.578651220000     1.007825032230
         H           -5.244089270000    -1.175452200000   -15.841491020000     1.007825032230
         C           -8.811226010000    -6.507964470000   -18.062611870000    12.000000000000
         C           -8.811226010000    -2.586658150000   -16.357530380000    12.000000000000
         C           -6.188300250000    -6.507964470000   -18.062611870000    12.000000000000
         C           -6.188300250000    -2.586658150000   -16.357530380000    12.000000000000

  Charge       = 0
  Multiplicity = 1
  Basis Set: AUG-CC-PVDZ
    Blend: AUG-CC-PVDZ
  Basis Set: (AUG-CC-PVDZ AUX)
    Blend: AUG-CC-PVDZ-JKFIT

    Orbital Energies [Eh]
    ---------------------

    Doubly Occupied:

       1A    -15.598072     2A    -15.598053     3A    -11.274238
       4A    -11.274193     5A    -11.272974     6A    -11.272969
       7A     -1.313347     8A     -1.224176     9A     -1.076803
      10A     -0.922662    11A     -0.919282    12A     -0.760637
      13A     -0.738402    14A     -0.706214    15A     -0.647688
      16A     -0.580711    17A     -0.574369    18A     -0.497113
      19A     -0.434288    20A     -0.415855    21A     -0.359924

  @DF-RHF Final Energy:  -262.63994747400790

   => Energetics <=

    Nuclear Repulsion Energy =            212.5517311431129315
    One-Electron Energy =                -775.4594163628386241
    Two-Electron Energy =                 300.2677377457177386
    Total Energy =                       -262.6399474740078972

  Dipole Moment: [D]
     X:    -0.0000      Y:    -0.0000      Z:     0.0001     Total:     0.0001

    SAPT Results
  --------------------------------------------------------------------------------------------------------
    Electrostatics                  0.00729239 [mEh]       0.00457604 [kcal/mol]       0.01914617 [kJ/mol]
      Elst10,r                      0.00729239 [mEh]       0.00457604 [kcal/mol]       0.01914617 [kJ/mol]

    Exchange                        0.00000058 [mEh]       0.00000036 [kcal/mol]       0.00000151 [kJ/mol]
      Exch10                        0.00000058 [mEh]       0.00000036 [kcal/mol]       0.00000151 [kJ/mol]
      Exch10(S^2)                   0.00000058 [mEh]       0.00000036 [kcal/mol]       0.00000151 [kJ/mol]

    Induction                      -0.00026462 [mEh]      -0.00016605 [kcal/mol]      -0.00069476 [kJ/mol]
      Ind20,r                      -0.00023655 [mEh]      -0.00014844 [kcal/mol]      -0.00062107 [kJ/mol]
      Exch-Ind20,r                  0.00000343 [mEh]       0.00000216 [kcal/mol]       0.00000902 [kJ/mol]
      delta HF,r (2)               -0.00003150 [mEh]      -0.00001977 [kcal/mol]      -0.00008271 [kJ/mol]

    Dispersion                     -0.02195869 [mEh]      -0.01377929 [kcal/mol]      -0.05765253 [kJ/mol]
      Disp20                       -0.02195912 [mEh]      -0.01377956 [kcal/mol]      -0.05765366 [kJ/mol]
      Exch-Disp20                   0.00000043 [mEh]       0.00000027 [kcal/mol]       0.00000113 [kJ/mol]
      Disp20 (SS)                  -0.01097956 [mEh]      -0.00688978 [kcal/mol]      -0.02882683 [kJ/mol]
      Disp20 (OS)                  -0.01097956 [mEh]      -0.00688978 [kcal/mol]      -0.02882683 [kJ/mol]
      Exch-Disp20 (SS)              0.00000037 [mEh]       0.00000023 [kcal/mol]       0.00000097 [kJ/mol]
      Exch-Disp20 (OS)              0.00000006 [mEh]       0.00000004 [kcal/mol]       0.00000016 [kJ/mol]

  Total HF                          0.00702835 [mEh]       0.00441035 [kcal/mol]       0.01845292 [kJ/mol]
  Total SAPT0                      -0.01493035 [mEh]      -0.00936893 [kcal/mol]      -0.03919962 [kJ/mol]

  Special recipe for scaled SAPT0 (see Manual):
    Electrostatics sSAPT0           0.00729239 [mEh]       0.00457604 [kcal/mol]       0.01914617 [kJ/mol]
    Exchange sSAPT0                 0.00000058 [mEh]       0.00000036 [kcal/mol]       0.00000151 [kJ/mol]
    Induction sSAPT0               -0.00026462 [mEh]      -0.00016605 [kcal/mol]      -0.00069476 [kJ/mol]
    Dispersion sSAPT0              -0.02195869 [mEh]      -0.01377929 [kcal/mol]      -0.05765253 [kJ/mol]
  Total sSAPT0                     -0.01493035 [mEh]      -0.00936893 [kcal/mol]      -0.03919962 [kJ/mol]
  --------------------------------------------------------------------------------------------------------

*** Psi4 exiting successfully. Buy a developer a beer!
