                               Psi4 1.4.1 release

  ==> Input File <==

--------------------------------------------------------------------------
# PSI4 file produced by CrystaLattE

# Generated from:               pyrazine.xyz
# Psithon input for N-mer:      2mer-0+224
# Number of atoms per monomer:  [10, 10]
# Number of replicas:           8
# COM priority:                 2.682407884409e-05
# Minimum COM separations:      17.678
# Separation priority:          3.762986054055e-05
# Minimum monomer separations:  15.792
# Cutoff priority:              1.260985652086e-06
# Nuclear repulsion energy:     477.67390925331915

memory 7 GB

molecule Dimer_0_224 {
  N           -1.33084758       0.98032658       0.42627037
  N            3.95377333       0.98032658       0.42627037
  H            3.56713674       4.35218569      -0.94230973
  H           -0.94421098       4.35218569      -0.94230973
  H           -0.94421098      -2.39153253       1.79485047
  H            3.56713674      -2.39153253       1.79485047
  C            2.62292576       2.94097974      -0.42627037
  C            0.00000000       2.94097974      -0.42627037
  C            0.00000000      -0.98032658       1.27881112
  C            2.62292576      -0.98032658       1.27881112
--
  N          -10.14207358      -4.54731131     -31.31914432
  N           -4.85745267      -4.54731131     -31.31914432
  H           -9.75543698      -7.91917042     -32.68772442
  H           -9.75543698      -1.17545220     -29.95056422
  H           -5.24408927      -7.91917042     -32.68772442
  H           -5.24408927      -1.17545220     -29.95056422
  C           -8.81122601      -6.50796447     -32.17168507
  C           -8.81122601      -2.58665815     -30.46660357
  C           -6.18830025      -6.50796447     -32.17168507
  C           -6.18830025      -2.58665815     -30.46660357
units = au
no_com
no_reorient
}

set {
  e_convergence 10
  d_convergence 10
  scf_type df
  mp2_type df
  cc_type df
  freeze_core true
}

energy('sapt0/aug-cc-pvdz')

--------------------------------------------------------------------------

  //              Dimer HF             //
    Molecular point group: c1
  Charge       = 0
  Multiplicity = 1
  Basis Set: AUG-CC-PVDZ
    Blend: AUG-CC-PVDZ
  Basis Set: (AUG-CC-PVDZ AUX)
    Blend: AUG-CC-PVDZ-JKFIT
  @DF-RHF Final Energy:  -525.27988744153026
    Total Energy =                       -525.2798874415302635
  //            Monomer A HF           //
    Molecular point group: c1
  Multiplicity = 1
  Basis Set: AUG-CC-PVDZ
    Blend: AUG-CC-PVDZ
  Basis Set: (AUG-CC-PVDZ AUX)
    Blend: AUG-CC-PVDZ-JKFIT
  @DF-RHF Final Energy:  -262.63994485227602
    Total Energy =                       -262.6399448522760167
  //            Monomer B HF           //
    Molecular point group: c1

    Geometry (in Bohr), charge = 0, multiplicity = 1:

       Center              X                  Y                   Z               Mass
    ------------   -----------------  -----------------  -----------------  -----------------
      Gh(N)          -1.330847580000     0.980326580000     0.426270370000    14.003074004430
      Gh(N)           3.953773330000     0.980326580000     0.426270370000    14.003074004430
      Gh(H)           3.567136740000     4.352185690000    -0.942309730000     1.007825032230
      Gh(H)          -0.944210980000     4.352185690000    -0.942309730000     1.007825032230
      Gh(H)          -0.944210980000    -2.391532530000     1.794850470000     1.007825032230
      Gh(H)           3.567136740000    -2.391532530000     1.794850470000     1.007825032230
      Gh(C)           2.622925760000     2.940979740000    -0.426270370000    12.000000000000
      Gh(C)           0.000000000000     2.940979740000    -0.426270370000    12.000000000000
      Gh(C)           0.000000000000    -0.980326580000     1.278811120000    12.000000000000
      Gh(C)           2.622925760000    -0.980326580000     1.278811120000    12.000000000000
         N          -10.142073580000    -4.547311310000   -31.319144320000    14.003074004430
         N           -4.857452670000    -4.547311310000   -31.319144320000    14.003074004430
         H           -9.755436980000    -7.919170420000   -32.687724420000     1.007825032230
         H           -9.755436980000    -1.175452200000   -29.950564220000     1.007825032230
         H           -5.244089270000    -7.919170420000   -32.687724420000     1.007825032230
         H           -5.244089270000    -1.175452200000   -29.950564220000     1.007825032230
         C           -8.811226010000    -6.507964470000   -32.171685070000    12.000000000000
         C           -8.811226010000    -2.586658150000   -30.466603570000    12.000000000000
         C           -6.188300250000    -6.507964470000   -32.171685070000    12.000000000000
         C           -6.188300250000    -2.586658150000   -30.466603570000    12.000000000000

  Charge       = 0
  Multiplicity = 1
  Basis Set: AUG-CC-PVDZ
    Blend: AUG-CC-PVDZ
  Basis Set: (AUG-CC-PVDZ AUX)
    Blend: AUG-CC-PVDZ-JKFIT

    Orbital Energies [Eh]
    ---------------------

    Doubly Occupied:

       1A    -15.598072     2A    -15.598053     3A    -11.274239
       4A    -11.274194     5A    -11.272975     6A    -11.272969
       7A     -1.313347     8A     -1.224176     9A     -1.076803
      10A     -0.922662    11A     -0.919282    12A     -0.760637
      13A     -0.738402    14A     -0.706214    15A     -0.647687
      16A     -0.580711    17A     -0.574369    18A     -0.497113
      19A     -0.434288    20A     -0.415855    21A     -0.359924

  @DF-RHF Final Energy:  -262.63994484671122

   => Energetics <=

    Nuclear Repulsion Energy =            212.5517310749281137
    One-Electron Energy =                -775.4594095436601719
    Two-Electron Energy =                 300.2677336220207849
    Total Energy =                       -262.6399448467112165

  Dipole Moment: [D]
     X:     0.0000      Y:    -0.0000      Z:    -0.0000     Total:     0.0000

    SAPT Results
  --------------------------------------------------------------------------------------------------------
    Electrostatics                  0.00225428 [mEh]       0.00141458 [kcal/mol]       0.00591861 [kJ/mol]
      Elst10,r                      0.00225428 [mEh]       0.00141458 [kcal/mol]       0.00591861 [kJ/mol]

    Exchange                        0.00000000 [mEh]       0.00000000 [kcal/mol]       0.00000000 [kJ/mol]
      Exch10                        0.00000000 [mEh]       0.00000000 [kcal/mol]       0.00000000 [kJ/mol]
      Exch10(S^2)                   0.00000000 [mEh]       0.00000000 [kcal/mol]       0.00000000 [kJ/mol]

    Induction                       0.00000318 [mEh]       0.00000199 [kcal/mol]       0.00000834 [kJ/mol]
      Ind20,r                      -0.00000298 [mEh]      -0.00000187 [kcal/mol]      -0.00000782 [kJ/mol]
      Exch-Ind20,r                  0.00000000 [mEh]       0.00000000 [kcal/mol]       0.00000000 [kJ/mol]
      delta HF,r (2)                0.00000616 [mEh]       0.00000386 [kcal/mol]       0.00001616 [kJ/mol]

    Dispersion                     -0.00106002 [mEh]      -0.00066518 [kcal/mol]      -0.00278309 [kJ/mol]
      Disp20                       -0.00106002 [mEh]      -0.00066518 [kcal/mol]      -0.00278309 [kJ/mol]
      Exch-Disp20                   0.00000000 [mEh]       0.00000000 [kcal/mol]       0.00000000 [kJ/mol]
      Disp20 (SS)                  -0.00053001 [mEh]      -0.00033259 [kcal/mol]      -0.00139155 [kJ/mol]
      Disp20 (OS)                  -0.00053001 [mEh]      -0.00033259 [kcal/mol]      -0.00139155 [kJ/mol]
      Exch-Disp20 (SS)              0.00000000 [mEh]       0.00000000 [kcal/mol]       0.00000000 [kJ/mol]
      Exch-Disp20 (OS)              0.00000000 [mEh]       0.00000000 [kcal/mol]       0.00000000 [kJ/mol]

  Total HF                          0.00225746 [mEh]       0.00141658 [kcal/mol]       0.00592695 [kJ/mol]
  Total SAPT0                       0.00119743 [mEh]       0.00075140 [kcal/mol]       0.00314386 [kJ/mol]

  Special recipe for scaled SAPT0 (see Manual):
    Electrostatics sSAPT0           0.00225428 [mEh]       0.00141458 [kcal/mol]       0.00591861 [kJ/mol]
    Exchange sSAPT0                 0.00000000 [mEh]       0.00000000 [kcal/mol]       0.00000000 [kJ/mol]
    Induction sSAPT0                0.00000318 [mEh]       0.00000199 [kcal/mol]       0.00000834 [kJ/mol]
    Dispersion sSAPT0              -0.00106002 [mEh]      -0.00066518 [kcal/mol]      -0.00278309 [kJ/mol]
  Total sSAPT0                      0.00119743 [mEh]       0.00075140 [kcal/mol]       0.00314386 [kJ/mol]
  --------------------------------------------------------------------------------------------------------

*** Psi4 exiting successfully. Buy a developer a beer!
