                               Psi4 1.4.1 release

  ==> Input File <==

--------------------------------------------------------------------------
# PSI4 file produced by CrystaLattE

# Generated from:               pyrazine.xyz
# Psithon input for N-mer:      2mer-0+423
# Number of atoms per monomer:  [10, 10]
# Number of replicas:           4
# COM priority:                 1.296126534006e-05
# Minimum COM separations:      22.528
# Separation priority:          2.126894038256e-05
# Minimum monomer separations:  19.099
# Cutoff priority:              5.892882819809e-07
# Nuclear repulsion energy:     466.5927792143067

memory 7 GB

molecule Dimer_0_423 {
  N           -1.33084758       0.98032658       0.42627037
  N            3.95377333       0.98032658       0.42627037
  H            3.56713674       4.35218569      -0.94230973
  H           -0.94421098       4.35218569      -0.94230973
  H           -0.94421098      -2.39153253       1.79485047
  H            3.56713674      -2.39153253       1.79485047
  C            2.62292576       2.94097974      -0.42627037
  C            0.00000000       2.94097974      -0.42627037
  C            0.00000000      -0.98032658       1.27881112
  C            2.62292576      -0.98032658       1.27881112
--
  N          -36.57575160      12.03560236     -20.73733942
  N          -31.29113069      12.03560236     -20.73733942
  H          -31.67776728      15.40746147     -22.10591952
  H          -36.18911500      15.40746147     -22.10591952
  H          -36.18911500       8.66374325     -19.36875932
  H          -31.67776728       8.66374325     -19.36875932
  C          -32.62197826      13.99625552     -21.58988017
  C          -35.24490402      13.99625552     -21.58988017
  C          -35.24490402      10.07494920     -19.88479867
  C          -32.62197826      10.07494920     -19.88479867
units = au
no_com
no_reorient
}

set {
  e_convergence 10
  d_convergence 10
  scf_type df
  mp2_type df
  cc_type df
  freeze_core true
}

energy('sapt0/aug-cc-pvdz')

--------------------------------------------------------------------------

  //              Dimer HF             //
    Molecular point group: c1
  Charge       = 0
  Multiplicity = 1
  Basis Set: AUG-CC-PVDZ
    Blend: AUG-CC-PVDZ
  Basis Set: (AUG-CC-PVDZ AUX)
    Blend: AUG-CC-PVDZ-JKFIT
  @DF-RHF Final Energy:  -525.27989062565655
    Total Energy =                       -525.2798906256565488
  //            Monomer A HF           //
    Molecular point group: c1
  Multiplicity = 1
  Basis Set: AUG-CC-PVDZ
    Blend: AUG-CC-PVDZ
  Basis Set: (AUG-CC-PVDZ AUX)
    Blend: AUG-CC-PVDZ-JKFIT
  @DF-RHF Final Energy:  -262.63994485197554
    Total Energy =                       -262.6399448519755424
  //            Monomer B HF           //
    Molecular point group: c1

    Geometry (in Bohr), charge = 0, multiplicity = 1:

       Center              X                  Y                   Z               Mass
    ------------   -----------------  -----------------  -----------------  -----------------
      Gh(N)          -1.330847580000     0.980326580000     0.426270370000    14.003074004430
      Gh(N)           3.953773330000     0.980326580000     0.426270370000    14.003074004430
      Gh(H)           3.567136740000     4.352185690000    -0.942309730000     1.007825032230
      Gh(H)          -0.944210980000     4.352185690000    -0.942309730000     1.007825032230
      Gh(H)          -0.944210980000    -2.391532530000     1.794850470000     1.007825032230
      Gh(H)           3.567136740000    -2.391532530000     1.794850470000     1.007825032230
      Gh(C)           2.622925760000     2.940979740000    -0.426270370000    12.000000000000
      Gh(C)           0.000000000000     2.940979740000    -0.426270370000    12.000000000000
      Gh(C)           0.000000000000    -0.980326580000     1.278811120000    12.000000000000
      Gh(C)           2.622925760000    -0.980326580000     1.278811120000    12.000000000000
         N          -36.575751600000    12.035602360000   -20.737339420000    14.003074004430
         N          -31.291130690000    12.035602360000   -20.737339420000    14.003074004430
         H          -31.677767280000    15.407461470000   -22.105919520000     1.007825032230
         H          -36.189115000000    15.407461470000   -22.105919520000     1.007825032230
         H          -36.189115000000     8.663743250000   -19.368759320000     1.007825032230
         H          -31.677767280000     8.663743250000   -19.368759320000     1.007825032230
         C          -32.621978260000    13.996255520000   -21.589880170000    12.000000000000
         C          -35.244904020000    13.996255520000   -21.589880170000    12.000000000000
         C          -35.244904020000    10.074949200000   -19.884798670000    12.000000000000
         C          -32.621978260000    10.074949200000   -19.884798670000    12.000000000000

  Charge       = 0
  Multiplicity = 1
  Basis Set: AUG-CC-PVDZ
    Blend: AUG-CC-PVDZ
  Basis Set: (AUG-CC-PVDZ AUX)
    Blend: AUG-CC-PVDZ-JKFIT

    Orbital Energies [Eh]
    ---------------------

    Doubly Occupied:

       1A    -15.598072     2A    -15.598053     3A    -11.274239
       4A    -11.274194     5A    -11.272975     6A    -11.272969
       7A     -1.313347     8A     -1.224176     9A     -1.076803
      10A     -0.922662    11A     -0.919282    12A     -0.760637
      13A     -0.738402    14A     -0.706214    15A     -0.647687
      16A     -0.580711    17A     -0.574369    18A     -0.497113
      19A     -0.434288    20A     -0.415855    21A     -0.359924

  @DF-RHF Final Energy:  -262.63994485139244

   => Energetics <=

    Nuclear Repulsion Energy =            212.5517310423005597
    One-Electron Energy =                -775.4594095049201314
    Two-Electron Energy =                 300.2677336112270723
    Total Energy =                       -262.6399448513924426

  Dipole Moment: [D]
     X:     0.0000      Y:     0.0000      Z:    -0.0000     Total:     0.0000

    SAPT Results
  --------------------------------------------------------------------------------------------------------
    Electrostatics                 -0.00093348 [mEh]      -0.00058577 [kcal/mol]      -0.00245085 [kJ/mol]
      Elst10,r                     -0.00093348 [mEh]      -0.00058577 [kcal/mol]      -0.00245085 [kJ/mol]

    Exchange                        0.00000000 [mEh]       0.00000000 [kcal/mol]       0.00000000 [kJ/mol]
      Exch10                        0.00000000 [mEh]       0.00000000 [kcal/mol]       0.00000000 [kJ/mol]
      Exch10(S^2)                   0.00000000 [mEh]       0.00000000 [kcal/mol]       0.00000000 [kJ/mol]

    Induction                       0.00001119 [mEh]       0.00000702 [kcal/mol]       0.00002938 [kJ/mol]
      Ind20,r                      -0.00000180 [mEh]      -0.00000113 [kcal/mol]      -0.00000472 [kJ/mol]
      Exch-Ind20,r                  0.00000000 [mEh]       0.00000000 [kcal/mol]       0.00000000 [kJ/mol]
      delta HF,r (2)                0.00001299 [mEh]       0.00000815 [kcal/mol]       0.00003410 [kJ/mol]

    Dispersion                     -0.00030769 [mEh]      -0.00019308 [kcal/mol]      -0.00080785 [kJ/mol]
      Disp20                       -0.00030769 [mEh]      -0.00019308 [kcal/mol]      -0.00080785 [kJ/mol]
      Exch-Disp20                   0.00000000 [mEh]       0.00000000 [kcal/mol]       0.00000000 [kJ/mol]
      Disp20 (SS)                  -0.00015385 [mEh]      -0.00009654 [kcal/mol]      -0.00040393 [kJ/mol]
      Disp20 (OS)                  -0.00015385 [mEh]      -0.00009654 [kcal/mol]      -0.00040393 [kJ/mol]
      Exch-Disp20 (SS)              0.00000000 [mEh]       0.00000000 [kcal/mol]       0.00000000 [kJ/mol]
      Exch-Disp20 (OS)              0.00000000 [mEh]       0.00000000 [kcal/mol]       0.00000000 [kJ/mol]

  Total HF                         -0.00092229 [mEh]      -0.00057874 [kcal/mol]      -0.00242147 [kJ/mol]
  Total SAPT0                      -0.00122998 [mEh]      -0.00077183 [kcal/mol]      -0.00322932 [kJ/mol]

  Special recipe for scaled SAPT0 (see Manual):
    Electrostatics sSAPT0          -0.00093348 [mEh]      -0.00058577 [kcal/mol]      -0.00245085 [kJ/mol]
    Exchange sSAPT0                 0.00000000 [mEh]       0.00000000 [kcal/mol]       0.00000000 [kJ/mol]
    Induction sSAPT0                0.00001119 [mEh]       0.00000702 [kcal/mol]       0.00002938 [kJ/mol]
    Dispersion sSAPT0              -0.00030769 [mEh]      -0.00019308 [kcal/mol]      -0.00080785 [kJ/mol]
  Total sSAPT0                     -0.00122998 [mEh]      -0.00077183 [kcal/mol]      -0.00322932 [kJ/mol]
  --------------------------------------------------------------------------------------------------------

*** Psi4 exiting successfully. Buy a developer a beer!
