                               Psi4 1.4.1 release

  ==> Input File <==

--------------------------------------------------------------------------
# PSI4 file produced by CrystaLattE

# Generated from:               pyrazine.xyz
# Psithon input for N-mer:      2mer-0+295
# Number of atoms per monomer:  [10, 10]
# Number of replicas:           8
# COM priority:                 1.600484522992e-05
# Minimum COM separations:      20.998
# Separation priority:          3.028914333594e-05
# Minimum monomer separations:  16.976
# Cutoff priority:              9.441680944162e-07
# Nuclear repulsion energy:     469.62287417365013

memory 7 GB

molecule Dimer_0_295 {
  N           -1.33084758       0.98032658       0.42627037
  N            3.95377333       0.98032658       0.42627037
  H            3.56713674       4.35218569      -0.94230973
  H           -0.94421098       4.35218569      -0.94230973
  H           -0.94421098      -2.39153253       1.79485047
  H            3.56713674      -2.39153253       1.79485047
  C            2.62292576       2.94097974      -0.42627037
  C            0.00000000       2.94097974      -0.42627037
  C            0.00000000      -0.98032658       1.27881112
  C            2.62292576      -0.98032658       1.27881112
--
  N          -27.76452559     -26.65786287     -10.15553452
  N          -22.47990468     -26.65786287     -10.15553452
  H          -27.37788899     -30.02972198     -11.52411462
  H          -27.37788899     -23.28600376      -8.78695442
  H          -22.86654128     -30.02972198     -11.52411462
  H          -22.86654128     -23.28600376      -8.78695442
  C          -26.43367802     -28.61851603     -11.00807527
  C          -26.43367802     -24.69720971      -9.30299378
  C          -23.81075226     -28.61851603     -11.00807527
  C          -23.81075226     -24.69720971      -9.30299378
units = au
no_com
no_reorient
}

set {
  e_convergence 10
  d_convergence 10
  scf_type df
  mp2_type df
  cc_type df
  freeze_core true
}

energy('sapt0/aug-cc-pvdz')

--------------------------------------------------------------------------

  //              Dimer HF             //
    Molecular point group: c1
  Charge       = 0
  Multiplicity = 1
  Basis Set: AUG-CC-PVDZ
    Blend: AUG-CC-PVDZ
  Basis Set: (AUG-CC-PVDZ AUX)
    Blend: AUG-CC-PVDZ-JKFIT
  @DF-RHF Final Energy:  -525.27989253797455
    Total Energy =                       -525.2798925379745469
  //            Monomer A HF           //
    Molecular point group: c1
  Multiplicity = 1
  Basis Set: AUG-CC-PVDZ
    Blend: AUG-CC-PVDZ
  Basis Set: (AUG-CC-PVDZ AUX)
    Blend: AUG-CC-PVDZ-JKFIT
  @DF-RHF Final Energy:  -262.63994485076239
    Total Energy =                       -262.6399448507623902
  //            Monomer B HF           //
    Molecular point group: c1

    Geometry (in Bohr), charge = 0, multiplicity = 1:

       Center              X                  Y                   Z               Mass
    ------------   -----------------  -----------------  -----------------  -----------------
      Gh(N)          -1.330847580000     0.980326580000     0.426270370000    14.003074004430
      Gh(N)           3.953773330000     0.980326580000     0.426270370000    14.003074004430
      Gh(H)           3.567136740000     4.352185690000    -0.942309730000     1.007825032230
      Gh(H)          -0.944210980000     4.352185690000    -0.942309730000     1.007825032230
      Gh(H)          -0.944210980000    -2.391532530000     1.794850470000     1.007825032230
      Gh(H)           3.567136740000    -2.391532530000     1.794850470000     1.007825032230
      Gh(C)           2.622925760000     2.940979740000    -0.426270370000    12.000000000000
      Gh(C)           0.000000000000     2.940979740000    -0.426270370000    12.000000000000
      Gh(C)           0.000000000000    -0.980326580000     1.278811120000    12.000000000000
      Gh(C)           2.622925760000    -0.980326580000     1.278811120000    12.000000000000
         N          -27.764525590000   -26.657862870000   -10.155534520000    14.003074004430
         N          -22.479904680000   -26.657862870000   -10.155534520000    14.003074004430
         H          -27.377888990000   -30.029721980000   -11.524114620000     1.007825032230
         H          -27.377888990000   -23.286003760000    -8.786954420000     1.007825032230
         H          -22.866541280000   -30.029721980000   -11.524114620000     1.007825032230
         H          -22.866541280000   -23.286003760000    -8.786954420000     1.007825032230
         C          -26.433678020000   -28.618516030000   -11.008075270000    12.000000000000
         C          -26.433678020000   -24.697209710000    -9.302993780000    12.000000000000
         C          -23.810752260000   -28.618516030000   -11.008075270000    12.000000000000
         C          -23.810752260000   -24.697209710000    -9.302993780000    12.000000000000

  Charge       = 0
  Multiplicity = 1
  Basis Set: AUG-CC-PVDZ
    Blend: AUG-CC-PVDZ
  Basis Set: (AUG-CC-PVDZ AUX)
    Blend: AUG-CC-PVDZ-JKFIT

    Orbital Energies [Eh]
    ---------------------

    Doubly Occupied:

       1A    -15.598072     2A    -15.598053     3A    -11.274239
       4A    -11.274194     5A    -11.272975     6A    -11.272969
       7A     -1.313347     8A     -1.224176     9A     -1.076803
      10A     -0.922662    11A     -0.919282    12A     -0.760637
      13A     -0.738402    14A     -0.706214    15A     -0.647687
      16A     -0.580711    17A     -0.574369    18A     -0.497113
      19A     -0.434288    20A     -0.415855    21A     -0.359924

  @DF-RHF Final Energy:  -262.63994485052126

   => Energetics <=

    Nuclear Repulsion Energy =            212.5517311431129315
    One-Electron Energy =                -775.4594096925021631
    Two-Electron Energy =                 300.2677336988679144
    Total Energy =                       -262.6399448505212604

  Dipole Moment: [D]
     X:     0.0000      Y:    -0.0000      Z:    -0.0000     Total:     0.0000

    SAPT Results
  --------------------------------------------------------------------------------------------------------
    Electrostatics                 -0.00284056 [mEh]      -0.00178248 [kcal/mol]      -0.00745788 [kJ/mol]
      Elst10,r                     -0.00284056 [mEh]      -0.00178248 [kcal/mol]      -0.00745788 [kJ/mol]

    Exchange                        0.00000000 [mEh]       0.00000000 [kcal/mol]       0.00000000 [kJ/mol]
      Exch10                        0.00000000 [mEh]       0.00000000 [kcal/mol]       0.00000000 [kJ/mol]
      Exch10(S^2)                   0.00000000 [mEh]       0.00000000 [kcal/mol]       0.00000000 [kJ/mol]

    Induction                       0.00000387 [mEh]       0.00000243 [kcal/mol]       0.00001015 [kJ/mol]
      Ind20,r                      -0.00000260 [mEh]      -0.00000163 [kcal/mol]      -0.00000683 [kJ/mol]
      Exch-Ind20,r                  0.00000000 [mEh]       0.00000000 [kcal/mol]       0.00000000 [kJ/mol]
      delta HF,r (2)                0.00000647 [mEh]       0.00000406 [kcal/mol]       0.00001698 [kJ/mol]

    Dispersion                     -0.00048001 [mEh]      -0.00030121 [kcal/mol]      -0.00126026 [kJ/mol]
      Disp20                       -0.00048001 [mEh]      -0.00030121 [kcal/mol]      -0.00126026 [kJ/mol]
      Exch-Disp20                   0.00000000 [mEh]       0.00000000 [kcal/mol]       0.00000000 [kJ/mol]
      Disp20 (SS)                  -0.00024000 [mEh]      -0.00015060 [kcal/mol]      -0.00063013 [kJ/mol]
      Disp20 (OS)                  -0.00024000 [mEh]      -0.00015060 [kcal/mol]      -0.00063013 [kJ/mol]
      Exch-Disp20 (SS)              0.00000000 [mEh]       0.00000000 [kcal/mol]       0.00000000 [kJ/mol]
      Exch-Disp20 (OS)              0.00000000 [mEh]       0.00000000 [kcal/mol]       0.00000000 [kJ/mol]

  Total HF                         -0.00283669 [mEh]      -0.00178005 [kcal/mol]      -0.00744773 [kJ/mol]
  Total SAPT0                      -0.00331670 [mEh]      -0.00208126 [kcal/mol]      -0.00870799 [kJ/mol]

  Special recipe for scaled SAPT0 (see Manual):
    Electrostatics sSAPT0          -0.00284056 [mEh]      -0.00178248 [kcal/mol]      -0.00745788 [kJ/mol]
    Exchange sSAPT0                 0.00000000 [mEh]       0.00000000 [kcal/mol]       0.00000000 [kJ/mol]
    Induction sSAPT0                0.00000387 [mEh]       0.00000243 [kcal/mol]       0.00001015 [kJ/mol]
    Dispersion sSAPT0              -0.00048001 [mEh]      -0.00030121 [kcal/mol]      -0.00126026 [kJ/mol]
  Total sSAPT0                     -0.00331670 [mEh]      -0.00208126 [kcal/mol]      -0.00870799 [kJ/mol]
  --------------------------------------------------------------------------------------------------------

*** Psi4 exiting successfully. Buy a developer a beer!
