                               Psi4 1.4.1 release

  ==> Input File <==

--------------------------------------------------------------------------
# PSI4 file produced by CrystaLattE

# Generated from:               pyrazine.xyz
# Psithon input for N-mer:      2mer-0+425
# Number of atoms per monomer:  [10, 10]
# Number of replicas:           8
# COM priority:                 1.221054262849e-05
# Minimum COM separations:      22.980
# Separation priority:          2.015333677856e-05
# Minimum monomer separations:  19.445
# Cutoff priority:              5.484402032982e-07
# Nuclear repulsion energy:     465.7430935504483

memory 7 GB

molecule Dimer_0_425 {
  N           -1.33084758       0.98032658       0.42627037
  N            3.95377333       0.98032658       0.42627037
  H            3.56713674       4.35218569      -0.94230973
  H           -0.94421098       4.35218569      -0.94230973
  H           -0.94421098      -2.39153253       1.79485047
  H            3.56713674      -2.39153253       1.79485047
  C            2.62292576       2.94097974      -0.42627037
  C            0.00000000       2.94097974      -0.42627037
  C            0.00000000      -0.98032658       1.27881112
  C            2.62292576      -0.98032658       1.27881112
--
  N          -10.14207358     -37.71313865     -17.21007112
  N           -4.85745267     -37.71313865     -17.21007112
  H           -9.75543698     -41.08499776     -18.57865122
  H           -9.75543698     -34.34127953     -15.84149102
  H           -5.24408927     -41.08499776     -18.57865122
  H           -5.24408927     -34.34127953     -15.84149102
  C           -8.81122601     -39.67379181     -18.06261187
  C           -8.81122601     -35.75248549     -16.35753038
  C           -6.18830025     -39.67379181     -18.06261187
  C           -6.18830025     -35.75248549     -16.35753038
units = au
no_com
no_reorient
}

set {
  e_convergence 10
  d_convergence 10
  scf_type df
  mp2_type df
  cc_type df
  freeze_core true
}

energy('sapt0/aug-cc-pvdz')

--------------------------------------------------------------------------

  //              Dimer HF             //
    Molecular point group: c1
  Charge       = 0
  Multiplicity = 1
  Basis Set: AUG-CC-PVDZ
    Blend: AUG-CC-PVDZ
  Basis Set: (AUG-CC-PVDZ AUX)
    Blend: AUG-CC-PVDZ-JKFIT
  @DF-RHF Final Energy:  -525.27988898785748
    Total Energy =                       -525.2798889878574755
  //            Monomer A HF           //
    Molecular point group: c1
  Multiplicity = 1
  Basis Set: AUG-CC-PVDZ
    Blend: AUG-CC-PVDZ
  Basis Set: (AUG-CC-PVDZ AUX)
    Blend: AUG-CC-PVDZ-JKFIT
  @DF-RHF Final Energy:  -262.63994485288094
    Total Energy =                       -262.6399448528809444
  //            Monomer B HF           //
    Molecular point group: c1

    Geometry (in Bohr), charge = 0, multiplicity = 1:

       Center              X                  Y                   Z               Mass
    ------------   -----------------  -----------------  -----------------  -----------------
      Gh(N)          -1.330847580000     0.980326580000     0.426270370000    14.003074004430
      Gh(N)           3.953773330000     0.980326580000     0.426270370000    14.003074004430
      Gh(H)           3.567136740000     4.352185690000    -0.942309730000     1.007825032230
      Gh(H)          -0.944210980000     4.352185690000    -0.942309730000     1.007825032230
      Gh(H)          -0.944210980000    -2.391532530000     1.794850470000     1.007825032230
      Gh(H)           3.567136740000    -2.391532530000     1.794850470000     1.007825032230
      Gh(C)           2.622925760000     2.940979740000    -0.426270370000    12.000000000000
      Gh(C)           0.000000000000     2.940979740000    -0.426270370000    12.000000000000
      Gh(C)           0.000000000000    -0.980326580000     1.278811120000    12.000000000000
      Gh(C)           2.622925760000    -0.980326580000     1.278811120000    12.000000000000
         N          -10.142073580000   -37.713138650000   -17.210071120000    14.003074004430
         N           -4.857452670000   -37.713138650000   -17.210071120000    14.003074004430
         H           -9.755436980000   -41.084997760000   -18.578651220000     1.007825032230
         H           -9.755436980000   -34.341279530000   -15.841491020000     1.007825032230
         H           -5.244089270000   -41.084997760000   -18.578651220000     1.007825032230
         H           -5.244089270000   -34.341279530000   -15.841491020000     1.007825032230
         C           -8.811226010000   -39.673791810000   -18.062611870000    12.000000000000
         C           -8.811226010000   -35.752485490000   -16.357530380000    12.000000000000
         C           -6.188300250000   -39.673791810000   -18.062611870000    12.000000000000
         C           -6.188300250000   -35.752485490000   -16.357530380000    12.000000000000

  Charge       = 0
  Multiplicity = 1
  Basis Set: AUG-CC-PVDZ
    Blend: AUG-CC-PVDZ
  Basis Set: (AUG-CC-PVDZ AUX)
    Blend: AUG-CC-PVDZ-JKFIT

    Orbital Energies [Eh]
    ---------------------

    Doubly Occupied:

       1A    -15.598072     2A    -15.598053     3A    -11.274239
       4A    -11.274194     5A    -11.272975     6A    -11.272969
       7A     -1.313347     8A     -1.224176     9A     -1.076803
      10A     -0.922662    11A     -0.919282    12A     -0.760637
      13A     -0.738402    14A     -0.706214    15A     -0.647687
      16A     -0.580711    17A     -0.574369    18A     -0.497113
      19A     -0.434288    20A     -0.415855    21A     -0.359924

  @DF-RHF Final Energy:  -262.63994485194593

   => Energetics <=

    Nuclear Repulsion Energy =            212.5517310923821128
    One-Electron Energy =                -775.4594096088941342
    Two-Electron Energy =                 300.2677336645661512
    Total Energy =                       -262.6399448519459270

  Dipole Moment: [D]
     X:     0.0000      Y:    -0.0000      Z:    -0.0000     Total:     0.0000

    SAPT Results
  --------------------------------------------------------------------------------------------------------
    Electrostatics                  0.00071694 [mEh]       0.00044989 [kcal/mol]       0.00188234 [kJ/mol]
      Elst10,r                      0.00071694 [mEh]       0.00044989 [kcal/mol]       0.00188234 [kJ/mol]

    Exchange                        0.00000000 [mEh]       0.00000000 [kcal/mol]       0.00000000 [kJ/mol]
      Exch10                        0.00000000 [mEh]       0.00000000 [kcal/mol]       0.00000000 [kJ/mol]
      Exch10(S^2)                   0.00000000 [mEh]       0.00000000 [kcal/mol]       0.00000000 [kJ/mol]

    Induction                       0.00000002 [mEh]       0.00000002 [kcal/mol]       0.00000007 [kJ/mol]
      Ind20,r                      -0.00000187 [mEh]      -0.00000118 [kcal/mol]      -0.00000492 [kJ/mol]
      Exch-Ind20,r                  0.00000000 [mEh]       0.00000000 [kcal/mol]       0.00000000 [kJ/mol]
      delta HF,r (2)                0.00000190 [mEh]       0.00000119 [kcal/mol]       0.00000499 [kJ/mol]

    Dispersion                     -0.00026675 [mEh]      -0.00016739 [kcal/mol]      -0.00070034 [kJ/mol]
      Disp20                       -0.00026675 [mEh]      -0.00016739 [kcal/mol]      -0.00070034 [kJ/mol]
      Exch-Disp20                   0.00000000 [mEh]       0.00000000 [kcal/mol]       0.00000000 [kJ/mol]
      Disp20 (SS)                  -0.00013337 [mEh]      -0.00008369 [kcal/mol]      -0.00035017 [kJ/mol]
      Disp20 (OS)                  -0.00013337 [mEh]      -0.00008369 [kcal/mol]      -0.00035017 [kJ/mol]
      Exch-Disp20 (SS)              0.00000000 [mEh]       0.00000000 [kcal/mol]       0.00000000 [kJ/mol]
      Exch-Disp20 (OS)              0.00000000 [mEh]       0.00000000 [kcal/mol]       0.00000000 [kJ/mol]

  Total HF                          0.00071697 [mEh]       0.00044991 [kcal/mol]       0.00188240 [kJ/mol]
  Total SAPT0                       0.00045022 [mEh]       0.00028252 [kcal/mol]       0.00118206 [kJ/mol]

  Special recipe for scaled SAPT0 (see Manual):
    Electrostatics sSAPT0           0.00071694 [mEh]       0.00044989 [kcal/mol]       0.00188234 [kJ/mol]
    Exchange sSAPT0                 0.00000000 [mEh]       0.00000000 [kcal/mol]       0.00000000 [kJ/mol]
    Induction sSAPT0                0.00000002 [mEh]       0.00000002 [kcal/mol]       0.00000007 [kJ/mol]
    Dispersion sSAPT0              -0.00026675 [mEh]      -0.00016739 [kcal/mol]      -0.00070034 [kJ/mol]
  Total sSAPT0                      0.00045022 [mEh]       0.00028252 [kcal/mol]       0.00118206 [kJ/mol]
  --------------------------------------------------------------------------------------------------------

*** Psi4 exiting successfully. Buy a developer a beer!
