                               Psi4 1.4.1 release

  ==> Input File <==

--------------------------------------------------------------------------
# PSI4 file produced by CrystaLattE

# Generated from:               pyrazine.xyz
# Psithon input for N-mer:      2mer-0+340
# Number of atoms per monomer:  [10, 10]
# Number of replicas:           4
# COM priority:                 1.548558305429e-05
# Minimum COM separations:      21.230
# Separation priority:          2.551469455236e-05
# Minimum monomer separations:  17.975
# Cutoff priority:              7.511393224902e-07
# Nuclear repulsion energy:     469.0446790442466

memory 7 GB

molecule Dimer_0_340 {
  N           -1.33084758       0.98032658       0.42627037
  N            3.95377333       0.98032658       0.42627037
  H            3.56713674       4.35218569      -0.94230973
  H           -0.94421098       4.35218569      -0.94230973
  H           -0.94421098      -2.39153253       1.79485047
  H            3.56713674      -2.39153253       1.79485047
  C            2.62292576       2.94097974      -0.42627037
  C            0.00000000       2.94097974      -0.42627037
  C            0.00000000      -0.98032658       1.27881112
  C            2.62292576      -0.98032658       1.27881112
--
  N          -18.95329959     -32.18550076     -13.68280282
  N          -13.66867868     -32.18550076     -13.68280282
  H          -14.05531527     -28.81364165     -15.05138292
  H          -18.56666299     -28.81364165     -15.05138292
  H          -18.56666299     -35.55735987     -12.31422272
  H          -14.05531527     -35.55735987     -12.31422272
  C          -14.99952625     -30.22484760     -14.53534357
  C          -17.62245201     -30.22484760     -14.53534357
  C          -17.62245201     -34.14615392     -12.83026208
  C          -14.99952625     -34.14615392     -12.83026208
units = au
no_com
no_reorient
}

set {
  e_convergence 10
  d_convergence 10
  scf_type df
  mp2_type df
  cc_type df
  freeze_core true
}

energy('sapt0/aug-cc-pvdz')

--------------------------------------------------------------------------

  //              Dimer HF             //
    Molecular point group: c1
  Charge       = 0
  Multiplicity = 1
  Basis Set: AUG-CC-PVDZ
    Blend: AUG-CC-PVDZ
  Basis Set: (AUG-CC-PVDZ AUX)
    Blend: AUG-CC-PVDZ-JKFIT
  @DF-RHF Final Energy:  -525.27989150438316
    Total Energy =                       -525.2798915043831585
  //            Monomer A HF           //
    Molecular point group: c1
  Multiplicity = 1
  Basis Set: AUG-CC-PVDZ
    Blend: AUG-CC-PVDZ
  Basis Set: (AUG-CC-PVDZ AUX)
    Blend: AUG-CC-PVDZ-JKFIT
  @DF-RHF Final Energy:  -262.63994485200760
    Total Energy =                       -262.6399448520076021
  //            Monomer B HF           //
    Molecular point group: c1

    Geometry (in Bohr), charge = 0, multiplicity = 1:

       Center              X                  Y                   Z               Mass
    ------------   -----------------  -----------------  -----------------  -----------------
      Gh(N)          -1.330847580000     0.980326580000     0.426270370000    14.003074004430
      Gh(N)           3.953773330000     0.980326580000     0.426270370000    14.003074004430
      Gh(H)           3.567136740000     4.352185690000    -0.942309730000     1.007825032230
      Gh(H)          -0.944210980000     4.352185690000    -0.942309730000     1.007825032230
      Gh(H)          -0.944210980000    -2.391532530000     1.794850470000     1.007825032230
      Gh(H)           3.567136740000    -2.391532530000     1.794850470000     1.007825032230
      Gh(C)           2.622925760000     2.940979740000    -0.426270370000    12.000000000000
      Gh(C)           0.000000000000     2.940979740000    -0.426270370000    12.000000000000
      Gh(C)           0.000000000000    -0.980326580000     1.278811120000    12.000000000000
      Gh(C)           2.622925760000    -0.980326580000     1.278811120000    12.000000000000
         N          -18.953299590000   -32.185500760000   -13.682802820000    14.003074004430
         N          -13.668678680000   -32.185500760000   -13.682802820000    14.003074004430
         H          -14.055315270000   -28.813641650000   -15.051382920000     1.007825032230
         H          -18.566662990000   -28.813641650000   -15.051382920000     1.007825032230
         H          -18.566662990000   -35.557359870000   -12.314222720000     1.007825032230
         H          -14.055315270000   -35.557359870000   -12.314222720000     1.007825032230
         C          -14.999526250000   -30.224847600000   -14.535343570000    12.000000000000
         C          -17.622452010000   -30.224847600000   -14.535343570000    12.000000000000
         C          -17.622452010000   -34.146153920000   -12.830262080000    12.000000000000
         C          -14.999526250000   -34.146153920000   -12.830262080000    12.000000000000

  Charge       = 0
  Multiplicity = 1
  Basis Set: AUG-CC-PVDZ
    Blend: AUG-CC-PVDZ
  Basis Set: (AUG-CC-PVDZ AUX)
    Blend: AUG-CC-PVDZ-JKFIT

    Orbital Energies [Eh]
    ---------------------

    Doubly Occupied:

       1A    -15.598072     2A    -15.598053     3A    -11.274239
       4A    -11.274194     5A    -11.272975     6A    -11.272969
       7A     -1.313347     8A     -1.224176     9A     -1.076803
      10A     -0.922662    11A     -0.919282    12A     -0.760637
      13A     -0.738402    14A     -0.706214    15A     -0.647687
      16A     -0.580711    17A     -0.574369    18A     -0.497113
      19A     -0.434288    20A     -0.415855    21A     -0.359924

  @DF-RHF Final Energy:  -262.63994485182883

   => Energetics <=

    Nuclear Repulsion Energy =            212.5517311104852638
    One-Electron Energy =                -775.4594096417716855
    Two-Electron Energy =                 300.2677336794575353
    Total Energy =                       -262.6399448518288295

  Dipole Moment: [D]
     X:     0.0000      Y:    -0.0000      Z:     0.0000     Total:     0.0000

    SAPT Results
  --------------------------------------------------------------------------------------------------------
    Electrostatics                 -0.00180638 [mEh]      -0.00113352 [kcal/mol]      -0.00474266 [kJ/mol]
      Elst10,r                     -0.00180638 [mEh]      -0.00113352 [kcal/mol]      -0.00474266 [kJ/mol]

    Exchange                        0.00000000 [mEh]       0.00000000 [kcal/mol]       0.00000000 [kJ/mol]
      Exch10                        0.00000000 [mEh]       0.00000000 [kcal/mol]       0.00000000 [kJ/mol]
      Exch10(S^2)                   0.00000000 [mEh]       0.00000000 [kcal/mol]       0.00000000 [kJ/mol]

    Induction                       0.00000584 [mEh]       0.00000366 [kcal/mol]       0.00001533 [kJ/mol]
      Ind20,r                      -0.00000169 [mEh]      -0.00000106 [kcal/mol]      -0.00000443 [kJ/mol]
      Exch-Ind20,r                  0.00000000 [mEh]       0.00000000 [kcal/mol]       0.00000000 [kJ/mol]
      delta HF,r (2)                0.00000752 [mEh]       0.00000472 [kcal/mol]       0.00001975 [kJ/mol]

    Dispersion                     -0.00039035 [mEh]      -0.00024495 [kcal/mol]      -0.00102485 [kJ/mol]
      Disp20                       -0.00039035 [mEh]      -0.00024495 [kcal/mol]      -0.00102485 [kJ/mol]
      Exch-Disp20                   0.00000000 [mEh]       0.00000000 [kcal/mol]       0.00000000 [kJ/mol]
      Disp20 (SS)                  -0.00019517 [mEh]      -0.00012247 [kcal/mol]      -0.00051243 [kJ/mol]
      Disp20 (OS)                  -0.00019517 [mEh]      -0.00012247 [kcal/mol]      -0.00051243 [kJ/mol]
      Exch-Disp20 (SS)              0.00000000 [mEh]       0.00000000 [kcal/mol]       0.00000000 [kJ/mol]
      Exch-Disp20 (OS)              0.00000000 [mEh]       0.00000000 [kcal/mol]       0.00000000 [kJ/mol]

  Total HF                         -0.00180055 [mEh]      -0.00112986 [kcal/mol]      -0.00472733 [kJ/mol]
  Total SAPT0                      -0.00219089 [mEh]      -0.00137481 [kcal/mol]      -0.00575219 [kJ/mol]

  Special recipe for scaled SAPT0 (see Manual):
    Electrostatics sSAPT0          -0.00180638 [mEh]      -0.00113352 [kcal/mol]      -0.00474266 [kJ/mol]
    Exchange sSAPT0                 0.00000000 [mEh]       0.00000000 [kcal/mol]       0.00000000 [kJ/mol]
    Induction sSAPT0                0.00000584 [mEh]       0.00000366 [kcal/mol]       0.00001533 [kJ/mol]
    Dispersion sSAPT0              -0.00039035 [mEh]      -0.00024495 [kcal/mol]      -0.00102485 [kJ/mol]
  Total sSAPT0                     -0.00219089 [mEh]      -0.00137481 [kcal/mol]      -0.00575219 [kJ/mol]
  --------------------------------------------------------------------------------------------------------

*** Psi4 exiting successfully. Buy a developer a beer!
