                               Psi4 1.4.1 release

  ==> Input File <==

--------------------------------------------------------------------------
# PSI4 file produced by CrystaLattE

# Generated from:               pyrazine.xyz
# Psithon input for N-mer:      2mer-0+49
# Number of atoms per monomer:  [10, 10]
# Number of replicas:           4
# COM priority:                 9.434194982688e-05
# Minimum COM separations:      11.624
# Separation priority:          2.063542765505e-04
# Minimum monomer separations:  8.955
# Cutoff priority:              1.219414341237e-05
# Nuclear repulsion energy:     505.55680574002326

memory 7 GB

molecule Dimer_0_49 {
  N           -1.33084758       0.98032658       0.42627037
  N            3.95377333       0.98032658       0.42627037
  H            3.56713674       4.35218569      -0.94230973
  H           -0.94421098       4.35218569      -0.94230973
  H           -0.94421098      -2.39153253       1.79485047
  H            3.56713674      -2.39153253       1.79485047
  C            2.62292576       2.94097974      -0.42627037
  C            0.00000000       2.94097974      -0.42627037
  C            0.00000000      -0.98032658       1.27881112
  C            2.62292576      -0.98032658       1.27881112
--
  N          -18.95329959     -10.07494920      -6.62826622
  N          -13.66867868     -10.07494920      -6.62826622
  H          -14.05531527      -6.70309009      -7.99684633
  H          -18.56666299      -6.70309009      -7.99684633
  H          -18.56666299     -13.44680831      -5.25968612
  H          -14.05531527     -13.44680831      -5.25968612
  C          -14.99952625      -8.11429604      -7.48080697
  C          -17.62245201      -8.11429604      -7.48080697
  C          -17.62245201     -12.03560236      -5.77572548
  C          -14.99952625     -12.03560236      -5.77572548
units = au
no_com
no_reorient
}

set {
  e_convergence 10
  d_convergence 10
  scf_type df
  mp2_type df
  cc_type df
  freeze_core true
}

energy('sapt0/aug-cc-pvdz')

--------------------------------------------------------------------------

  //              Dimer HF             //
    Molecular point group: c1
  Charge       = 0
  Multiplicity = 1
  Basis Set: AUG-CC-PVDZ
    Blend: AUG-CC-PVDZ
  Basis Set: (AUG-CC-PVDZ AUX)
    Blend: AUG-CC-PVDZ-JKFIT
  @DF-RHF Final Energy:  -525.27990717870807
    Total Energy =                       -525.2799071787080720
  //            Monomer A HF           //
    Molecular point group: c1
  Multiplicity = 1
  Basis Set: AUG-CC-PVDZ
    Blend: AUG-CC-PVDZ
  Basis Set: (AUG-CC-PVDZ AUX)
    Blend: AUG-CC-PVDZ-JKFIT
  @DF-RHF Final Energy:  -262.63994833730425
    Total Energy =                       -262.6399483373042472
  //            Monomer B HF           //
    Molecular point group: c1

    Geometry (in Bohr), charge = 0, multiplicity = 1:

       Center              X                  Y                   Z               Mass
    ------------   -----------------  -----------------  -----------------  -----------------
      Gh(N)          -1.330847580000     0.980326580000     0.426270370000    14.003074004430
      Gh(N)           3.953773330000     0.980326580000     0.426270370000    14.003074004430
      Gh(H)           3.567136740000     4.352185690000    -0.942309730000     1.007825032230
      Gh(H)          -0.944210980000     4.352185690000    -0.942309730000     1.007825032230
      Gh(H)          -0.944210980000    -2.391532530000     1.794850470000     1.007825032230
      Gh(H)           3.567136740000    -2.391532530000     1.794850470000     1.007825032230
      Gh(C)           2.622925760000     2.940979740000    -0.426270370000    12.000000000000
      Gh(C)           0.000000000000     2.940979740000    -0.426270370000    12.000000000000
      Gh(C)           0.000000000000    -0.980326580000     1.278811120000    12.000000000000
      Gh(C)           2.622925760000    -0.980326580000     1.278811120000    12.000000000000
         N          -18.953299590000   -10.074949200000    -6.628266220000    14.003074004430
         N          -13.668678680000   -10.074949200000    -6.628266220000    14.003074004430
         H          -14.055315270000    -6.703090090000    -7.996846330000     1.007825032230
         H          -18.566662990000    -6.703090090000    -7.996846330000     1.007825032230
         H          -18.566662990000   -13.446808310000    -5.259686120000     1.007825032230
         H          -14.055315270000   -13.446808310000    -5.259686120000     1.007825032230
         C          -14.999526250000    -8.114296040000    -7.480806970000    12.000000000000
         C          -17.622452010000    -8.114296040000    -7.480806970000    12.000000000000
         C          -17.622452010000   -12.035602360000    -5.775725480000    12.000000000000
         C          -14.999526250000   -12.035602360000    -5.775725480000    12.000000000000

  Charge       = 0
  Multiplicity = 1
  Basis Set: AUG-CC-PVDZ
    Blend: AUG-CC-PVDZ
  Basis Set: (AUG-CC-PVDZ AUX)
    Blend: AUG-CC-PVDZ-JKFIT

    Orbital Energies [Eh]
    ---------------------

    Doubly Occupied:

       1A    -15.598072     2A    -15.598053     3A    -11.274238
       4A    -11.274193     5A    -11.272974     6A    -11.272968
       7A     -1.313347     8A     -1.224176     9A     -1.076803
      10A     -0.922662    11A     -0.919282    12A     -0.760637
      13A     -0.738402    14A     -0.706214    15A     -0.647687
      16A     -0.580711    17A     -0.574369    18A     -0.497113
      19A     -0.434288    20A     -0.415855    21A     -0.359924

  @DF-RHF Final Energy:  -262.63994833735347

   => Energetics <=

    Nuclear Repulsion Energy =            212.5517310911745312
    One-Electron Energy =                -775.4594206761036048
    Two-Electron Energy =                 300.2677412475756569
    Total Energy =                       -262.6399483373534736

  Dipole Moment: [D]
     X:     0.0000      Y:    -0.0000      Z:     0.0000     Total:     0.0000

    SAPT Results
  --------------------------------------------------------------------------------------------------------
    Electrostatics                 -0.01022610 [mEh]      -0.00641697 [kcal/mol]      -0.02684862 [kJ/mol]
      Elst10,r                     -0.01022610 [mEh]      -0.00641697 [kcal/mol]      -0.02684862 [kJ/mol]

    Exchange                        0.00000104 [mEh]       0.00000065 [kcal/mol]       0.00000274 [kJ/mol]
      Exch10                        0.00000104 [mEh]       0.00000065 [kcal/mol]       0.00000274 [kJ/mol]
      Exch10(S^2)                   0.00000104 [mEh]       0.00000065 [kcal/mol]       0.00000274 [kJ/mol]

    Induction                      -0.00027899 [mEh]      -0.00017507 [kcal/mol]      -0.00073250 [kJ/mol]
      Ind20,r                      -0.00036296 [mEh]      -0.00022776 [kcal/mol]      -0.00095296 [kJ/mol]
      Exch-Ind20,r                  0.00000405 [mEh]       0.00000254 [kcal/mol]       0.00001064 [kJ/mol]
      delta HF,r (2)                0.00007992 [mEh]       0.00005015 [kcal/mol]       0.00020982 [kJ/mol]

    Dispersion                     -0.01763724 [mEh]      -0.01106753 [kcal/mol]      -0.04630656 [kJ/mol]
      Disp20                       -0.01763762 [mEh]      -0.01106778 [kcal/mol]      -0.04630758 [kJ/mol]
      Exch-Disp20                   0.00000039 [mEh]       0.00000024 [kcal/mol]       0.00000102 [kJ/mol]
      Disp20 (SS)                  -0.00881881 [mEh]      -0.00553389 [kcal/mol]      -0.02315379 [kJ/mol]
      Disp20 (OS)                  -0.00881881 [mEh]      -0.00553389 [kcal/mol]      -0.02315379 [kJ/mol]
      Exch-Disp20 (SS)              0.00000033 [mEh]       0.00000021 [kcal/mol]       0.00000087 [kJ/mol]
      Exch-Disp20 (OS)              0.00000006 [mEh]       0.00000004 [kcal/mol]       0.00000015 [kJ/mol]

  Total HF                         -0.01050405 [mEh]      -0.00659139 [kcal/mol]      -0.02757838 [kJ/mol]
  Total SAPT0                      -0.02814129 [mEh]      -0.01765892 [kcal/mol]      -0.07388494 [kJ/mol]

  Special recipe for scaled SAPT0 (see Manual):
    Electrostatics sSAPT0          -0.01022610 [mEh]      -0.00641697 [kcal/mol]      -0.02684862 [kJ/mol]
    Exchange sSAPT0                 0.00000104 [mEh]       0.00000065 [kcal/mol]       0.00000274 [kJ/mol]
    Induction sSAPT0               -0.00027899 [mEh]      -0.00017507 [kcal/mol]      -0.00073250 [kJ/mol]
    Dispersion sSAPT0              -0.01763724 [mEh]      -0.01106753 [kcal/mol]      -0.04630656 [kJ/mol]
  Total sSAPT0                     -0.02814129 [mEh]      -0.01765892 [kcal/mol]      -0.07388494 [kJ/mol]
  --------------------------------------------------------------------------------------------------------

*** Psi4 exiting successfully. Buy a developer a beer!
