                               Psi4 1.4.1 release

  ==> Input File <==

--------------------------------------------------------------------------
# PSI4 file produced by CrystaLattE

# Generated from:               pyrazine.xyz
# Psithon input for N-mer:      2mer-0+1
# Number of atoms per monomer:  [10, 10]
# Number of replicas:           8
# COM priority:                 7.547355986150e-04
# Minimum COM separations:      5.812
# Separation priority:          8.185540409071e-03
# Minimum monomer separations:  2.626
# Cutoff priority:              1.649667717490e-03
# Nuclear repulsion energy:     588.8820718075217

memory 7 GB

molecule Dimer_0_1 {
  N           -1.33084758       0.98032658       0.42627037
  N            3.95377333       0.98032658       0.42627037
  H            3.56713674       4.35218569      -0.94230973
  H           -0.94421098       4.35218569      -0.94230973
  H           -0.94421098      -2.39153253       1.79485047
  H            3.56713674      -2.39153253       1.79485047
  C            2.62292576       2.94097974      -0.42627037
  C            0.00000000       2.94097974      -0.42627037
  C            0.00000000      -0.98032658       1.27881112
  C            2.62292576      -0.98032658       1.27881112
--
  N          -10.14207358      -4.54731131      -3.10099793
  N           -4.85745267      -4.54731131      -3.10099793
  H           -9.75543698      -7.91917042      -4.46957803
  H           -9.75543698      -1.17545220      -1.73241783
  H           -5.24408927      -7.91917042      -4.46957803
  H           -5.24408927      -1.17545220      -1.73241783
  C           -8.81122601      -6.50796447      -3.95353867
  C           -8.81122601      -2.58665815      -2.24845718
  C           -6.18830025      -6.50796447      -3.95353867
  C           -6.18830025      -2.58665815      -2.24845718
units = au
no_com
no_reorient
}

set {
  e_convergence 10
  d_convergence 10
  scf_type df
  mp2_type df
  cc_type df
  freeze_core true
}

energy('sapt0/aug-cc-pvdz')

--------------------------------------------------------------------------

  //              Dimer HF             //
    Molecular point group: c1
  Charge       = 0
  Multiplicity = 1
  Basis Set: AUG-CC-PVDZ
    Blend: AUG-CC-PVDZ
  Basis Set: (AUG-CC-PVDZ AUX)
    Blend: AUG-CC-PVDZ-JKFIT
  @DF-RHF Final Energy:  -525.28184391387845
    Total Energy =                       -525.2818439138784470
  //            Monomer A HF           //
    Molecular point group: c1
  Multiplicity = 1
  Basis Set: AUG-CC-PVDZ
    Blend: AUG-CC-PVDZ
  Basis Set: (AUG-CC-PVDZ AUX)
    Blend: AUG-CC-PVDZ-JKFIT
  @DF-RHF Final Energy:  -262.64027648266085
    Total Energy =                       -262.6402764826608518
  //            Monomer B HF           //
    Molecular point group: c1

    Geometry (in Bohr), charge = 0, multiplicity = 1:

       Center              X                  Y                   Z               Mass
    ------------   -----------------  -----------------  -----------------  -----------------
      Gh(N)          -1.330847580000     0.980326580000     0.426270370000    14.003074004430
      Gh(N)           3.953773330000     0.980326580000     0.426270370000    14.003074004430
      Gh(H)           3.567136740000     4.352185690000    -0.942309730000     1.007825032230
      Gh(H)          -0.944210980000     4.352185690000    -0.942309730000     1.007825032230
      Gh(H)          -0.944210980000    -2.391532530000     1.794850470000     1.007825032230
      Gh(H)           3.567136740000    -2.391532530000     1.794850470000     1.007825032230
      Gh(C)           2.622925760000     2.940979740000    -0.426270370000    12.000000000000
      Gh(C)           0.000000000000     2.940979740000    -0.426270370000    12.000000000000
      Gh(C)           0.000000000000    -0.980326580000     1.278811120000    12.000000000000
      Gh(C)           2.622925760000    -0.980326580000     1.278811120000    12.000000000000
         N          -10.142073580000    -4.547311310000    -3.100997930000    14.003074004430
         N           -4.857452670000    -4.547311310000    -3.100997930000    14.003074004430
         H           -9.755436980000    -7.919170420000    -4.469578030000     1.007825032230
         H           -9.755436980000    -1.175452200000    -1.732417830000     1.007825032230
         H           -5.244089270000    -7.919170420000    -4.469578030000     1.007825032230
         H           -5.244089270000    -1.175452200000    -1.732417830000     1.007825032230
         C           -8.811226010000    -6.507964470000    -3.953538670000    12.000000000000
         C           -8.811226010000    -2.586658150000    -2.248457180000    12.000000000000
         C           -6.188300250000    -6.507964470000    -3.953538670000    12.000000000000
         C           -6.188300250000    -2.586658150000    -2.248457180000    12.000000000000

  Charge       = 0
  Multiplicity = 1
  Basis Set: AUG-CC-PVDZ
    Blend: AUG-CC-PVDZ
  Basis Set: (AUG-CC-PVDZ AUX)
    Blend: AUG-CC-PVDZ-JKFIT

    Orbital Energies [Eh]
    ---------------------

    Doubly Occupied:

       1A    -15.598076     2A    -15.598054     3A    -11.274205
       4A    -11.274118     5A    -11.272955     6A    -11.272878
       7A     -1.313320     8A     -1.224145     9A     -1.076781
      10A     -0.922633    11A     -0.919266    12A     -0.760614
      13A     -0.738386    14A     -0.706191    15A     -0.647671
      16A     -0.580693    17A     -0.574374    18A     -0.497082
      19A     -0.434282    20A     -0.415834    21A     -0.359914

  @DF-RHF Final Energy:  -262.64025170864028

   => Energetics <=

    Nuclear Repulsion Energy =            212.5517311431129315
    One-Electron Energy =                -775.4610240867853008
    Two-Electron Energy =                 300.2690412350321481
    Total Energy =                       -262.6402517086402781

  Dipole Moment: [D]
     X:     0.0005      Y:     0.0000      Z:    -0.0004     Total:     0.0006

    SAPT Results
  --------------------------------------------------------------------------------------------------------
    Electrostatics                 -3.51677107 [mEh]      -2.20680716 [kcal/mol]      -9.23328117 [kJ/mol]
      Elst10,r                     -3.51677107 [mEh]      -2.20680716 [kcal/mol]      -9.23328117 [kJ/mol]

    Exchange                        2.83217351 [mEh]       1.77721571 [kcal/mol]       7.43587051 [kJ/mol]
      Exch10                        2.83217351 [mEh]       1.77721571 [kcal/mol]       7.43587051 [kJ/mol]
      Exch10(S^2)                   2.82670902 [mEh]       1.77378669 [kcal/mol]       7.42152351 [kJ/mol]

    Induction                      -0.63112501 [mEh]      -0.39603692 [kcal/mol]      -1.65701849 [kJ/mol]
      Ind20,r                      -0.95818413 [mEh]      -0.60126962 [kcal/mol]      -2.51571207 [kJ/mol]
      Exch-Ind20,r                  0.57497556 [mEh]       0.36080261 [kcal/mol]       1.50959812 [kJ/mol]
      delta HF,r (2)               -0.24791645 [mEh]      -0.15556992 [kcal/mol]      -0.65090454 [kJ/mol]

    Dispersion                     -3.28616356 [mEh]      -2.06209876 [kcal/mol]      -8.62782123 [kJ/mol]
      Disp20                       -3.55929972 [mEh]      -2.23349429 [kcal/mol]      -9.34494013 [kJ/mol]
      Exch-Disp20                   0.27313616 [mEh]       0.17139553 [kcal/mol]       0.71711890 [kJ/mol]
      Disp20 (SS)                  -1.77964986 [mEh]      -1.11674715 [kcal/mol]      -4.67247006 [kJ/mol]
      Disp20 (OS)                  -1.77964986 [mEh]      -1.11674715 [kcal/mol]      -4.67247006 [kJ/mol]
      Exch-Disp20 (SS)              0.17405505 [mEh]       0.10922119 [kcal/mol]       0.45698147 [kJ/mol]
      Exch-Disp20 (OS)              0.09908111 [mEh]       0.06217434 [kcal/mol]       0.26013743 [kJ/mol]

  Total HF                         -1.31572258 [mEh]      -0.82562838 [kcal/mol]      -3.45442915 [kJ/mol]
  Total SAPT0                      -4.60188613 [mEh]      -2.88772715 [kcal/mol]     -12.08225038 [kJ/mol]

  Special recipe for scaled SAPT0 (see Manual):
    Electrostatics sSAPT0          -3.51677107 [mEh]      -2.20680716 [kcal/mol]      -9.23328117 [kJ/mol]
    Exchange sSAPT0                 2.83217351 [mEh]       1.77721571 [kcal/mol]       7.43587051 [kJ/mol]
    Induction sSAPT0               -0.62778400 [mEh]      -0.39394041 [kcal/mol]      -1.64824666 [kJ/mol]
    Dispersion sSAPT0              -3.28457644 [mEh]      -2.06110284 [kcal/mol]      -8.62365426 [kJ/mol]
  Total sSAPT0                     -4.59695801 [mEh]      -2.88463470 [kcal/mol]     -12.06931159 [kJ/mol]
  --------------------------------------------------------------------------------------------------------

*** Psi4 exiting successfully. Buy a developer a beer!
