                               Psi4 1.4.1 release

  ==> Input File <==

--------------------------------------------------------------------------
# PSI4 file produced by CrystaLattE

# Generated from:               pyrazine.xyz
# Psithon input for N-mer:      2mer-0+45
# Number of atoms per monomer:  [10, 10]
# Number of replicas:           4
# COM priority:                 9.434194982688e-05
# Minimum COM separations:      11.624
# Separation priority:          3.306545373012e-04
# Minimum monomer separations:  7.653
# Cutoff priority:              2.286472498362e-05
# Nuclear repulsion energy:     506.0415664527793

memory 7 GB

molecule Dimer_0_45 {
  N           -1.33084758       0.98032658       0.42627037
  N            3.95377333       0.98032658       0.42627037
  H            3.56713674       4.35218569      -0.94230973
  H           -0.94421098       4.35218569      -0.94230973
  H           -0.94421098      -2.39153253       1.79485047
  H            3.56713674      -2.39153253       1.79485047
  C            2.62292576       2.94097974      -0.42627037
  C            0.00000000       2.94097974      -0.42627037
  C            0.00000000      -0.98032658       1.27881112
  C            2.62292576      -0.98032658       1.27881112
--
  N          -18.95329959     -10.07494920       7.48080697
  N          -13.66867868     -10.07494920       7.48080697
  H          -14.05531527      -6.70309009       6.11222687
  H          -18.56666299      -6.70309009       6.11222687
  H          -18.56666299     -13.44680831       8.84938707
  H          -14.05531527     -13.44680831       8.84938707
  C          -14.99952625      -8.11429604       6.62826622
  C          -17.62245201      -8.11429604       6.62826622
  C          -17.62245201     -12.03560236       8.33334772
  C          -14.99952625     -12.03560236       8.33334772
units = au
no_com
no_reorient
}

set {
  e_convergence 10
  d_convergence 10
  scf_type df
  mp2_type df
  cc_type df
  freeze_core true
}

energy('sapt0/aug-cc-pvdz')

--------------------------------------------------------------------------

  //              Dimer HF             //
    Molecular point group: c1
  Charge       = 0
  Multiplicity = 1
  Basis Set: AUG-CC-PVDZ
    Blend: AUG-CC-PVDZ
  Basis Set: (AUG-CC-PVDZ AUX)
    Blend: AUG-CC-PVDZ-JKFIT
  @DF-RHF Final Energy:  -525.27999572347574
    Total Energy =                       -525.2799957234757358
  //            Monomer A HF           //
    Molecular point group: c1
  Multiplicity = 1
  Basis Set: AUG-CC-PVDZ
    Blend: AUG-CC-PVDZ
  Basis Set: (AUG-CC-PVDZ AUX)
    Blend: AUG-CC-PVDZ-JKFIT
  @DF-RHF Final Energy:  -262.63995863411810
    Total Energy =                       -262.6399586341181021
  //            Monomer B HF           //
    Molecular point group: c1

    Geometry (in Bohr), charge = 0, multiplicity = 1:

       Center              X                  Y                   Z               Mass
    ------------   -----------------  -----------------  -----------------  -----------------
      Gh(N)          -1.330847580000     0.980326580000     0.426270370000    14.003074004430
      Gh(N)           3.953773330000     0.980326580000     0.426270370000    14.003074004430
      Gh(H)           3.567136740000     4.352185690000    -0.942309730000     1.007825032230
      Gh(H)          -0.944210980000     4.352185690000    -0.942309730000     1.007825032230
      Gh(H)          -0.944210980000    -2.391532530000     1.794850470000     1.007825032230
      Gh(H)           3.567136740000    -2.391532530000     1.794850470000     1.007825032230
      Gh(C)           2.622925760000     2.940979740000    -0.426270370000    12.000000000000
      Gh(C)           0.000000000000     2.940979740000    -0.426270370000    12.000000000000
      Gh(C)           0.000000000000    -0.980326580000     1.278811120000    12.000000000000
      Gh(C)           2.622925760000    -0.980326580000     1.278811120000    12.000000000000
         N          -18.953299590000   -10.074949200000     7.480806970000    14.003074004430
         N          -13.668678680000   -10.074949200000     7.480806970000    14.003074004430
         H          -14.055315270000    -6.703090090000     6.112226870000     1.007825032230
         H          -18.566662990000    -6.703090090000     6.112226870000     1.007825032230
         H          -18.566662990000   -13.446808310000     8.849387070000     1.007825032230
         H          -14.055315270000   -13.446808310000     8.849387070000     1.007825032230
         C          -14.999526250000    -8.114296040000     6.628266220000    12.000000000000
         C          -17.622452010000    -8.114296040000     6.628266220000    12.000000000000
         C          -17.622452010000   -12.035602360000     8.333347720000    12.000000000000
         C          -14.999526250000   -12.035602360000     8.333347720000    12.000000000000

  Charge       = 0
  Multiplicity = 1
  Basis Set: AUG-CC-PVDZ
    Blend: AUG-CC-PVDZ
  Basis Set: (AUG-CC-PVDZ AUX)
    Blend: AUG-CC-PVDZ-JKFIT

    Orbital Energies [Eh]
    ---------------------

    Doubly Occupied:

       1A    -15.598072     2A    -15.598054     3A    -11.274235
       4A    -11.274189     5A    -11.272973     6A    -11.272962
       7A     -1.313347     8A     -1.224175     9A     -1.076803
      10A     -0.922663    11A     -0.919282    12A     -0.760637
      13A     -0.738403    14A     -0.706214    15A     -0.647688
      16A     -0.580712    17A     -0.574369    18A     -0.497112
      19A     -0.434288    20A     -0.415855    21A     -0.359924

  @DF-RHF Final Energy:  -262.63995863160022

   => Energetics <=

    Nuclear Repulsion Energy =            212.5517310423005313
    One-Electron Energy =                -775.4594645990586059
    Two-Electron Energy =                 300.2677749251578803
    Total Energy =                       -262.6399586316002228

  Dipole Moment: [D]
     X:     0.0000      Y:     0.0000      Z:    -0.0000     Total:     0.0001

    SAPT Results
  --------------------------------------------------------------------------------------------------------
    Electrostatics                 -0.07795208 [mEh]      -0.04891567 [kcal/mol]      -0.20466315 [kJ/mol]
      Elst10,r                     -0.07795208 [mEh]      -0.04891567 [kcal/mol]      -0.20466315 [kJ/mol]

    Exchange                        0.00000496 [mEh]       0.00000311 [kcal/mol]       0.00001302 [kJ/mol]
      Exch10                        0.00000496 [mEh]       0.00000311 [kcal/mol]       0.00001302 [kJ/mol]
      Exch10(S^2)                   0.00000496 [mEh]       0.00000311 [kcal/mol]       0.00001302 [kJ/mol]

    Induction                      -0.00051064 [mEh]      -0.00032043 [kcal/mol]      -0.00134068 [kJ/mol]
      Ind20,r                      -0.00049310 [mEh]      -0.00030943 [kcal/mol]      -0.00129463 [kJ/mol]
      Exch-Ind20,r                  0.00001288 [mEh]       0.00000808 [kcal/mol]       0.00003383 [kJ/mol]
      delta HF,r (2)               -0.00003042 [mEh]      -0.00001909 [kcal/mol]      -0.00007987 [kJ/mol]

    Dispersion                     -0.02132995 [mEh]      -0.01338475 [kcal/mol]      -0.05600178 [kJ/mol]
      Disp20                       -0.02133102 [mEh]      -0.01338542 [kcal/mol]      -0.05600459 [kJ/mol]
      Exch-Disp20                   0.00000107 [mEh]       0.00000067 [kcal/mol]       0.00000281 [kJ/mol]
      Disp20 (SS)                  -0.01066551 [mEh]      -0.00669271 [kcal/mol]      -0.02800229 [kJ/mol]
      Disp20 (OS)                  -0.01066551 [mEh]      -0.00669271 [kcal/mol]      -0.02800229 [kJ/mol]
      Exch-Disp20 (SS)              0.00000090 [mEh]       0.00000057 [kcal/mol]       0.00000237 [kJ/mol]
      Exch-Disp20 (OS)              0.00000017 [mEh]       0.00000010 [kcal/mol]       0.00000044 [kJ/mol]

  Total HF                         -0.07845776 [mEh]      -0.04923299 [kcal/mol]      -0.20599081 [kJ/mol]
  Total SAPT0                      -0.09978771 [mEh]      -0.06261773 [kcal/mol]      -0.26199259 [kJ/mol]

  Special recipe for scaled SAPT0 (see Manual):
    Electrostatics sSAPT0          -0.07795208 [mEh]      -0.04891567 [kcal/mol]      -0.20466315 [kJ/mol]
    Exchange sSAPT0                 0.00000496 [mEh]       0.00000311 [kcal/mol]       0.00001302 [kJ/mol]
    Induction sSAPT0               -0.00051064 [mEh]      -0.00032043 [kcal/mol]      -0.00134068 [kJ/mol]
    Dispersion sSAPT0              -0.02132995 [mEh]      -0.01338475 [kcal/mol]      -0.05600178 [kJ/mol]
  Total sSAPT0                     -0.09978771 [mEh]      -0.06261773 [kcal/mol]      -0.26199259 [kJ/mol]
  --------------------------------------------------------------------------------------------------------

*** Psi4 exiting successfully. Buy a developer a beer!
