                               Psi4 1.4.1 release

  ==> Input File <==

--------------------------------------------------------------------------
# PSI4 file produced by CrystaLattE

# Generated from:               pyrazine.xyz
# Psithon input for N-mer:      2mer-0+209
# Number of atoms per monomer:  [10, 10]
# Number of replicas:           2
# COM priority:                 3.592471911255e-05
# Minimum COM separations:      16.038
# Separation priority:          3.592471911255e-05
# Minimum monomer separations:  16.038
# Cutoff priority:              1.185380671731e-06
# Nuclear repulsion energy:     482.8330689462181

memory 7 GB

molecule Dimer_0_209 {
  N           -1.33084758       0.98032658       0.42627037
  N            3.95377333       0.98032658       0.42627037
  H            3.56713674       4.35218569      -0.94230973
  H           -0.94421098       4.35218569      -0.94230973
  H           -0.94421098      -2.39153253       1.79485047
  H            3.56713674      -2.39153253       1.79485047
  C            2.62292576       2.94097974      -0.42627037
  C            0.00000000       2.94097974      -0.42627037
  C            0.00000000      -0.98032658       1.27881112
  C            2.62292576      -0.98032658       1.27881112
--
  N           -1.33084758     -10.07494920     -27.79187602
  N            3.95377333     -10.07494920     -27.79187602
  H            3.56713674      -6.70309009     -29.16045612
  H           -0.94421098      -6.70309009     -29.16045612
  H           -0.94421098     -13.44680831     -26.42329592
  H            3.56713674     -13.44680831     -26.42329592
  C            2.62292576      -8.11429604     -28.64441677
  C            0.00000000      -8.11429604     -28.64441677
  C            0.00000000     -12.03560236     -26.93933527
  C            2.62292576     -12.03560236     -26.93933527
units = au
no_com
no_reorient
}

set {
  e_convergence 10
  d_convergence 10
  scf_type df
  mp2_type df
  cc_type df
  freeze_core true
}

energy('sapt0/aug-cc-pvdz')

--------------------------------------------------------------------------

  //              Dimer HF             //
    Molecular point group: c1
  Charge       = 0
  Multiplicity = 1
  Basis Set: AUG-CC-PVDZ
    Blend: AUG-CC-PVDZ
  Basis Set: (AUG-CC-PVDZ AUX)
    Blend: AUG-CC-PVDZ-JKFIT
  @DF-RHF Final Energy:  -525.27988571293588
    Total Energy =                       -525.2798857129358794
  //            Monomer A HF           //
    Molecular point group: c1
  Multiplicity = 1
  Basis Set: AUG-CC-PVDZ
    Blend: AUG-CC-PVDZ
  Basis Set: (AUG-CC-PVDZ AUX)
    Blend: AUG-CC-PVDZ-JKFIT
  @DF-RHF Final Energy:  -262.63994485301168
    Total Energy =                       -262.6399448530116842
  //            Monomer B HF           //
    Molecular point group: c1

    Geometry (in Bohr), charge = 0, multiplicity = 1:

       Center              X                  Y                   Z               Mass
    ------------   -----------------  -----------------  -----------------  -----------------
      Gh(N)          -1.330847580000     0.980326580000     0.426270370000    14.003074004430
      Gh(N)           3.953773330000     0.980326580000     0.426270370000    14.003074004430
      Gh(H)           3.567136740000     4.352185690000    -0.942309730000     1.007825032230
      Gh(H)          -0.944210980000     4.352185690000    -0.942309730000     1.007825032230
      Gh(H)          -0.944210980000    -2.391532530000     1.794850470000     1.007825032230
      Gh(H)           3.567136740000    -2.391532530000     1.794850470000     1.007825032230
      Gh(C)           2.622925760000     2.940979740000    -0.426270370000    12.000000000000
      Gh(C)           0.000000000000     2.940979740000    -0.426270370000    12.000000000000
      Gh(C)           0.000000000000    -0.980326580000     1.278811120000    12.000000000000
      Gh(C)           2.622925760000    -0.980326580000     1.278811120000    12.000000000000
         N           -1.330847580000   -10.074949200000   -27.791876020000    14.003074004430
         N            3.953773330000   -10.074949200000   -27.791876020000    14.003074004430
         H            3.567136740000    -6.703090090000   -29.160456120000     1.007825032230
         H           -0.944210980000    -6.703090090000   -29.160456120000     1.007825032230
         H           -0.944210980000   -13.446808310000   -26.423295920000     1.007825032230
         H            3.567136740000   -13.446808310000   -26.423295920000     1.007825032230
         C            2.622925760000    -8.114296040000   -28.644416770000    12.000000000000
         C            0.000000000000    -8.114296040000   -28.644416770000    12.000000000000
         C            0.000000000000   -12.035602360000   -26.939335270000    12.000000000000
         C            2.622925760000   -12.035602360000   -26.939335270000    12.000000000000

  Charge       = 0
  Multiplicity = 1
  Basis Set: AUG-CC-PVDZ
    Blend: AUG-CC-PVDZ
  Basis Set: (AUG-CC-PVDZ AUX)
    Blend: AUG-CC-PVDZ-JKFIT

    Orbital Energies [Eh]
    ---------------------

    Doubly Occupied:

       1A    -15.598072     2A    -15.598053     3A    -11.274239
       4A    -11.274194     5A    -11.272975     6A    -11.272969
       7A     -1.313347     8A     -1.224176     9A     -1.076803
      10A     -0.922662    11A     -0.919282    12A     -0.760637
      13A     -0.738402    14A     -0.706214    15A     -0.647687
      16A     -0.580711    17A     -0.574369    18A     -0.497113
      19A     -0.434288    20A     -0.415855    21A     -0.359924

  @DF-RHF Final Energy:  -262.63994485060789

   => Energetics <=

    Nuclear Repulsion Energy =            212.5517310423005313
    One-Electron Energy =                -775.4594094865308307
    Two-Electron Energy =                 300.2677335936224381
    Total Energy =                       -262.6399448506078897

  Dipole Moment: [D]
     X:     0.0000      Y:    -0.0000      Z:    -0.0000     Total:     0.0000

    SAPT Results
  --------------------------------------------------------------------------------------------------------
    Electrostatics                  0.00397948 [mEh]       0.00249716 [kcal/mol]       0.01044812 [kJ/mol]
      Elst10,r                      0.00397948 [mEh]       0.00249716 [kcal/mol]       0.01044812 [kJ/mol]

    Exchange                       -0.00000000 [mEh]      -0.00000000 [kcal/mol]      -0.00000000 [kJ/mol]
      Exch10                       -0.00000000 [mEh]      -0.00000000 [kcal/mol]      -0.00000000 [kJ/mol]
      Exch10(S^2)                  -0.00000000 [mEh]      -0.00000000 [kcal/mol]      -0.00000000 [kJ/mol]

    Induction                       0.00001120 [mEh]       0.00000703 [kcal/mol]       0.00002942 [kJ/mol]
      Ind20,r                      -0.00000147 [mEh]      -0.00000092 [kcal/mol]      -0.00000386 [kJ/mol]
      Exch-Ind20,r                  0.00000000 [mEh]       0.00000000 [kcal/mol]       0.00000000 [kJ/mol]
      delta HF,r (2)                0.00001267 [mEh]       0.00000795 [kcal/mol]       0.00003328 [kJ/mol]

    Dispersion                     -0.00169522 [mEh]      -0.00106377 [kcal/mol]      -0.00445080 [kJ/mol]
      Disp20                       -0.00169522 [mEh]      -0.00106377 [kcal/mol]      -0.00445080 [kJ/mol]
      Exch-Disp20                   0.00000000 [mEh]       0.00000000 [kcal/mol]       0.00000000 [kJ/mol]
      Disp20 (SS)                  -0.00084761 [mEh]      -0.00053188 [kcal/mol]      -0.00222540 [kJ/mol]
      Disp20 (OS)                  -0.00084761 [mEh]      -0.00053188 [kcal/mol]      -0.00222540 [kJ/mol]
      Exch-Disp20 (SS)              0.00000000 [mEh]       0.00000000 [kcal/mol]       0.00000000 [kJ/mol]
      Exch-Disp20 (OS)              0.00000000 [mEh]       0.00000000 [kcal/mol]       0.00000000 [kJ/mol]

  Total HF                          0.00399068 [mEh]       0.00250419 [kcal/mol]       0.01047754 [kJ/mol]
  Total SAPT0                       0.00229546 [mEh]       0.00144042 [kcal/mol]       0.00602673 [kJ/mol]

  Special recipe for scaled SAPT0 (see Manual):
    Electrostatics sSAPT0           0.00397948 [mEh]       0.00249716 [kcal/mol]       0.01044812 [kJ/mol]
    Exchange sSAPT0                -0.00000000 [mEh]      -0.00000000 [kcal/mol]      -0.00000000 [kJ/mol]
    Induction sSAPT0                0.00001120 [mEh]       0.00000703 [kcal/mol]       0.00002942 [kJ/mol]
    Dispersion sSAPT0              -0.00169522 [mEh]      -0.00106377 [kcal/mol]      -0.00445080 [kJ/mol]
  Total sSAPT0                      0.00229546 [mEh]       0.00144042 [kcal/mol]       0.00602673 [kJ/mol]
  --------------------------------------------------------------------------------------------------------

*** Psi4 exiting successfully. Buy a developer a beer!
