                               Psi4 1.9.1 release

  ==> Input File <==

--------------------------------------------------------------------------

molecule imidazole {
  0 1
  C    1.000     1.000     0.000
  C   -0.375     1.000     0.000
  N   -0.728     1.000     1.321
  H   -1.667     1.001     1.694
  C    0.426     1.000     2.053
  N    1.484     1.000     1.283
  H    1.666     0.999    -0.853
  H   -1.104     1.001    -0.797
  H    0.429     0.999     3.135
}

set {
basis def2-SVP
}

grad, wfn = optimize('pbe0', return_wfn=True)

fw = core.FCHKWriter(wfn)
fchkfile = 'molecule' + '.fchk'
fw.write(fchkfile)

--------------------------------------------------------------------------

    Molecular point group: c1
  Charge       = 0
  Multiplicity = 1
  Basis Set: DEF2-SVP
    Blend: DEF2-SVP
  Basis Set: (DEF2-SVP AUX)
    Blend: DEF2-UNIVERSAL-JKFIT
  @DF-RKS Final Energy:  -225.79693153726569
    Total Energy =                       -225.7969315372656922
 Dipole X            :          0.3842308           -1.8750270           -1.4907963
 Dipole Y            :          0.0003815           -0.0000000            0.0003815
 Dipole Z            :          0.6687386           -0.5659603            0.1027783
 Magnitude           :                                                    1.4943350
    Molecular point group: c1
  Basis Set: DEF2-SVP
    Blend: DEF2-SVP
  Basis Set: (DEF2-SVP AUX)
    Blend: DEF2-UNIVERSAL-JKFIT
  Basis Set: DEF2-SVP
    Blend: DEF2-SVP
  Basis Set: (DEF2-SVP AUX)
    Blend: DEF2-UNIVERSAL-JKFIT
  @DF-RKS Final Energy:  -225.79711877265035
    Total Energy =                       -225.7971187726503501
  Basis Set: DEF2-SVP
    Blend: DEF2-SVP
  Basis Set: (DEF2-SVP AUX)
    Blend: DEF2-UNIVERSAL-JKFIT
  Basis Set: DEF2-SVP
    Blend: DEF2-SVP
  Basis Set: (DEF2-SVP AUX)
    Blend: DEF2-UNIVERSAL-JKFIT
  @DF-RKS Final Energy:  -225.79712634891382
    Total Energy =                       -225.7971263489137925
  Basis Set: DEF2-SVP
    Blend: DEF2-SVP
  Basis Set: (DEF2-SVP AUX)
    Blend: DEF2-UNIVERSAL-JKFIT
  Charge       = 0
  Multiplicity = 1
  Basis Set: DEF2-SVP
    Blend: DEF2-SVP
  Basis Set: (DEF2-SVP AUX)
    Blend: DEF2-UNIVERSAL-JKFIT

    Orbital Energies [Eh]
    ---------------------

    Doubly Occupied:

       1A    -14.453793     2A    -14.364620     3A    -10.282461
       4A    -10.261256     5A    -10.241024     6A     -1.040590
       7A     -0.888654     8A     -0.758042     9A     -0.631783
      10A     -0.605614    11A     -0.575341    12A     -0.455222
      13A     -0.452097    14A     -0.449813    15A     -0.417271
      16A     -0.298556    17A     -0.277092    18A     -0.242840

  @DF-RKS Final Energy:  -225.79712694816703

   => Energetics <=

    Nuclear Repulsion Energy =            163.5930751945691668
    One-Electron Energy =                -628.4107696149918638
    Two-Electron Energy =                 262.7906528732939933
    DFT Exchange-Correlation Energy =     -23.7700854010383367
    Empirical Dispersion Energy =           0.0000000000000000
    VV10 Nonlocal Energy =                  0.0000000000000000
    Total Energy =                       -225.7971269481670333
 Dipole X            :          0.3918263           -1.8835022           -1.4916759
 Dipole Y            :         -0.0006890            0.0021965            0.0015075
 Dipole Z            :          0.6770487           -0.5733228            0.1037259
 Magnitude           :                                                    1.4952786
    Molecular point group: c1
  Basis Set: DEF2-SVP
    Blend: DEF2-SVP
  Basis Set: (DEF2-SVP AUX)
    Blend: DEF2-UNIVERSAL-JKFIT

  -Total Gradient:
     Atom            X                  Y                   Z
    ------   -----------------  -----------------  -----------------
       1       -0.000065303530     0.000205458741     0.000061257385
       2       -0.000074453269    -0.000020732518    -0.000068299777
       3        0.000069188456    -0.000146408906     0.000060859973
       4        0.000009252594    -0.000024074603    -0.000016253854
       5        0.000125977781     0.000323709414    -0.000134197036
       6       -0.000052232815    -0.000360415675     0.000079158856
       7       -0.000005833988     0.000015334040    -0.000000560727
       8        0.000016655873    -0.000005603819    -0.000028488515
       9       -0.000031229412     0.000013207924     0.000019036788

    Final optimized geometry and variables:
    Molecular point group: c1

    Geometry (in Angstrom), charge = 0, multiplicity = 1:

    C            0.670565579886     0.000182253784    -0.944152608511
    C           -0.703973012870     0.000613738446    -0.944355563294
    N           -1.057190671163     0.000333396142     0.380031579922
    H           -1.999396370107     0.000716768814     0.747177017266
    C            0.092934154820     0.000446955078     1.105413287598
    N            1.150758922199    -0.001566903807     0.334901157181
    H            1.335884294469     0.000106562829    -1.806928527413
    H           -1.438739517028     0.001162371405    -1.745436132846
    H            0.093407060124     0.000353523845     2.195838405070

*** Psi4 exiting successfully. Buy a developer a beer!
