                               Psi4 1.9.1 release

  ==> Input File <==

--------------------------------------------------------------------------

molecule imidazole {
  0 1
  N    2.8090   -0.4594    0.0000
  N    3.3090    1.0794    0.0000
  C    2.0000    0.1284    0.0000
  C    3.6180    0.1284    0.0000
  C    2.3090    1.0794    0.0000
  H    2.8090   -1.0794    0.0000
  H    1.4103   -0.0632    0.0000
  H    4.2077   -0.0632    0.0000
  H    1.9446    1.5810    0.0000
}

set {
basis def2-SVP
}

# grad, wfn = energy('pbe0', return_wfn=True)
grad, wfn = optimize('pbe0', return_wfn=True)

fw = core.FCHKWriter(wfn)
fchkfile = 'molecule' + '.fchk'
fw.write(fchkfile)

--------------------------------------------------------------------------

    Molecular point group: cs
  Charge       = 0
  Multiplicity = 1
  Basis Set: DEF2-SVP
    Blend: DEF2-SVP
  Basis Set: (DEF2-SVP AUX)
    Blend: DEF2-UNIVERSAL-JKFIT
  @DF-RKS Final Energy:  -222.80091921573489
    Total Energy =                       -222.8009192157348934
 Dipole X            :          0.4536826           -0.8189752           -0.3652926
 Dipole Y            :         -0.3121049           -1.0309976           -1.3431025
 Dipole Z            :          0.0000000            0.0000000            0.0000000
 Magnitude           :                                                    1.3918919
    Molecular point group: cs
  Basis Set: DEF2-SVP
    Blend: DEF2-SVP
  Basis Set: (DEF2-SVP AUX)
    Blend: DEF2-UNIVERSAL-JKFIT
  Basis Set: DEF2-SVP
    Blend: DEF2-SVP
  Basis Set: (DEF2-SVP AUX)
    Blend: DEF2-UNIVERSAL-JKFIT
  @DF-RKS Final Energy:  -224.05344624305627
    Total Energy =                       -224.0534462430562712
  Basis Set: DEF2-SVP
    Blend: DEF2-SVP
  Basis Set: (DEF2-SVP AUX)
    Blend: DEF2-UNIVERSAL-JKFIT
  Basis Set: DEF2-SVP
    Blend: DEF2-SVP
  @DF-RKS Final Energy:  -224.90889199466503
    Total Energy =                       -224.9088919946650265
  @DF-RKS Final Energy:  -225.35583720843209
    Total Energy =                       -225.3558372084320638
  @DF-RKS Final Energy:  -225.60956343245755
    Total Energy =                       -225.6095634324575485
  @DF-RKS Final Energy:  -225.73424742146466
    Total Energy =                       -225.7342474214646870
  @DF-RKS Final Energy:  -225.78185630533306
    Total Energy =                       -225.7818563053330649
  @DF-RKS Final Energy:  -225.79427618082821
    Total Energy =                       -225.7942761808282341
  @DF-RKS Final Energy:  -225.79605687195593
    Total Energy =                       -225.7960568719559262
  @DF-RKS Final Energy:  -225.79647596047556
    Total Energy =                       -225.7964759604755614
  @DF-RKS Final Energy:  -225.79681368556913
    Total Energy =                       -225.7968136855691341
  @DF-RKS Final Energy:  -225.79707671858620
    Total Energy =                       -225.7970767185861689
  @DF-RKS Final Energy:  -225.79711129050202
    Total Energy =                       -225.7971112905020448
  @DF-RKS Final Energy:  -225.79712142176928
    Total Energy =                       -225.7971214217693046
  @DF-RKS Final Energy:  -225.79712646732884
    Total Energy =                       -225.7971264673288090
  Basis Set: (DEF2-SVP AUX)
    Blend: DEF2-UNIVERSAL-JKFIT
  Basis Set: DEF2-SVP
    Blend: DEF2-SVP
  Basis Set: (DEF2-SVP AUX)
    Blend: DEF2-UNIVERSAL-JKFIT
  @DF-RKS Final Energy:  -225.79712695670921
    Total Energy =                       -225.7971269567092349
  Basis Set: DEF2-SVP
    Blend: DEF2-SVP
  Basis Set: (DEF2-SVP AUX)
    Blend: DEF2-UNIVERSAL-JKFIT
  Charge       = 0
  Multiplicity = 1
  Basis Set: DEF2-SVP
    Blend: DEF2-SVP
  Basis Set: (DEF2-SVP AUX)
    Blend: DEF2-UNIVERSAL-JKFIT

    Orbital Energies [Eh]
    ---------------------

    Doubly Occupied:

       1Ap   -14.453796     2Ap   -14.364616     3Ap   -10.282470
       4Ap   -10.261260     5Ap   -10.241054     6Ap    -1.040595
       7Ap    -0.888684     8Ap    -0.758012     9Ap    -0.631861
      10Ap    -0.605598    11Ap    -0.575322    12Ap    -0.455248
       1App   -0.452100    13Ap    -0.449768    14Ap    -0.417269
       2App   -0.298571    15Ap    -0.277070     3App   -0.242829

  @DF-RKS Final Energy:  -225.79712754920786

   => Energetics <=

    Nuclear Repulsion Energy =            163.5914874689161707
    One-Electron Energy =                -628.4075229252357531
    Two-Electron Energy =                 262.7889419700319991
    DFT Exchange-Correlation Energy =     -23.7700340629203062
    Empirical Dispersion Energy =           0.0000000000000000
    VV10 Nonlocal Energy =                  0.0000000000000000
    Total Energy =                       -225.7971275492078860
 Dipole X            :          0.7703824           -1.1839815           -0.4135991
 Dipole Y            :          0.1356615           -1.5723679           -1.4367063
 Dipole Z            :          0.0000000            0.0000000            0.0000000
 Magnitude           :                                                    1.4950549
    Molecular point group: cs
  Basis Set: DEF2-SVP
    Blend: DEF2-SVP
  Basis Set: (DEF2-SVP AUX)
    Blend: DEF2-UNIVERSAL-JKFIT

  -Total Gradient:
     Atom            X                  Y                   Z
    ------   -----------------  -----------------  -----------------
       1        0.000076972548    -0.000315009175     0.000000000000
       2       -0.000011341452    -0.000045156300     0.000000000000
       3        0.000093618060     0.000019688917     0.000000000000
       4       -0.000167693783     0.000066170151     0.000000000000
       5        0.000100059459    -0.000100354328     0.000000000000
       6       -0.000036464738     0.000244418730     0.000000000000
       7       -0.000059671892    -0.000014564875     0.000000000000
       8        0.000072653398    -0.000002904293     0.000000000000
       9       -0.000095356790     0.000148498483     0.000000000000

    Final optimized geometry and variables:
    Molecular point group: cs

    Geometry (in Angstrom), charge = 0, multiplicity = 1:

    N           -0.005161730388    -1.123566385211     0.000000000000
    N            0.708804703225     0.966348749717     0.000000000000
    C           -1.128215345951    -0.337756230486     0.000000000000
    C            1.070311307423    -0.291495070231     0.000000000000
    C           -0.657306328478     0.953617351222     0.000000000000
    H            0.016646404950    -2.134284359598     0.000000000000
    H           -2.132540875950    -0.753837615722     0.000000000000
    H            2.095177931238    -0.664082146170     0.000000000000
    H           -1.240058075504     1.874470023446     0.000000000000

*** Psi4 exiting successfully. Buy a developer a beer!
