                               Psi4 1.9.1 release

  ==> Input File <==

--------------------------------------------------------------------------

molecule imidazole {
  0 1
  C    0.671     0.000    -0.944
  C   -0.704     0.001    -0.944
  N   -1.057     0.000     0.380
  H   -1.999     0.001     0.747
  C    0.093     0.000     1.105
  N    1.151    -0.002     0.335
  H    1.336     0.000    -1.807
  H   -1.439     0.001    -1.745
  H    0.093     0.000     2.196
}

set {
basis def2-SVP
}

grad, wfn = energy('pbe0', return_wfn=True)

fw = core.FCHKWriter(wfn)
fchkfile = 'molecule' + '.fchk'
fw.write(fchkfile)

--------------------------------------------------------------------------

    Molecular point group: c1

    Geometry (in Angstrom), charge = 0, multiplicity = 1:

       Center              X                  Y                   Z               Mass
    ------------   -----------------  -----------------  -----------------  -----------------
         C            0.670829969128     0.000205629375    -0.944035751907    12.000000000000
         C           -0.704170030872     0.001205629375    -0.944035751907    12.000000000000
         N           -1.057170030872     0.000205629375     0.379964248093    14.003074004430
         H           -1.999170030872     0.001205629375     0.746964248093     1.007825032230
         C            0.092829969128     0.000205629375     1.104964248093    12.000000000000
         N            1.150829969128    -0.001794370625     0.334964248093    14.003074004430
         H            1.335829969128     0.000205629375    -1.807035751907     1.007825032230
         H           -1.439170030872     0.001205629375    -1.745035751907     1.007825032230
         H            0.092829969128     0.000205629375     2.195964248093     1.007825032230

  Charge       = 0
  Multiplicity = 1
  Basis Set: DEF2-SVP
    Blend: DEF2-SVP
  Basis Set: (DEF2-SVP AUX)
    Blend: DEF2-UNIVERSAL-JKFIT

    Orbital Energies [Eh]
    ---------------------

    Doubly Occupied:

       1A    -14.453803     2A    -14.364626     3A    -10.282444
       4A    -10.261253     5A    -10.241067     6A     -1.040766
       7A     -0.888823     8A     -0.757983     9A     -0.631900
      10A     -0.605721    11A     -0.575270    12A     -0.455201
      13A     -0.452211    14A     -0.449761    15A     -0.417232
      16A     -0.298651    17A     -0.277141    18A     -0.242764

  @DF-RKS Final Energy:  -225.79712602930803

   => Energetics <=

    Nuclear Repulsion Energy =            163.6040723651164228
    One-Electron Energy =                -628.4315575080833014
    Two-Electron Energy =                 262.8005945882048309
    DFT Exchange-Correlation Energy =     -23.7702354745459346
    Empirical Dispersion Energy =           0.0000000000000000
    VV10 Nonlocal Energy =                  0.0000000000000000
    Total Energy =                       -225.7971260293080036
 Dipole X            :          0.3921425           -1.8842858           -1.4921434
 Dipole Y            :         -0.0008264            0.0026506            0.0018242
 Dipole Z            :          0.6768234           -0.5731295            0.1036939
 Magnitude           :                                                    1.4957431
*** Psi4 exiting successfully. Buy a developer a beer!
